# Region type : patch top
# Faces       : 50
# Area        : 1.019804e+01
# Scale factor: 1.000000e+00
# Time        	average(U)
2628000       	0.000000e+00
5256000       	0.000000e+00
7884000       	0.000000e+00
10512000      	0.000000e+00
13140000      	-5.171929e-09
15768000      	-1.412023e-08
18396000      	-1.928553e-08
21024000      	-2.658535e-08
23652000      	-2.191477e-08
26280000      	-2.261818e-10
28908000      	0.000000e+00
31536000      	0.000000e+00
