# Region      : all region0
# Cells       : 4250
# Volume      : 1.000000e+01
# Time        	average(T)	average(theta)	average(thetag)	average(thetal)	average(psi)
1314000       	2.737999e+02	3.901021e-01	1.469338e-01	2.431683e-01	-5.373373e-01
1971000       	2.742213e+02	3.964313e-01	1.134574e-01	2.829739e-01	-3.692746e-01
2628000       	2.744877e+02	3.964281e-01	8.885285e-02	3.075753e-01	-3.549103e-01
