# Region      : all region0
# Cells       : 4250
# Volume      : 1.000000e+01
# Time        	average(T)	average(theta)	average(thetag)	average(thetal)	average(psi)
657000        	2.731470e+02	3.910782e-01	1.961343e-01	1.949439e-01	-4.634294e-01
1314009       	2.737618e+02	3.959921e-01	1.465741e-01	2.494179e-01	-3.409048e-01
1971000       	2.741443e+02	3.983648e-01	1.141333e-01	2.842315e-01	-2.298059e-01
2628000       	2.744344e+02	3.996791e-01	8.960700e-02	3.100721e-01	-2.260843e-01
