# Region      : all region0
# Cells       : 4250
# Volume      : 1.000000e+01
# Time        	average(T)	average(theta)	average(thetag)	average(thetal)	average(psi)
1314000       	2.738076e+02	3.932067e-01	1.464883e-01	2.467185e-01	-4.555850e-01
1971000       	2.741968e+02	3.883649e-01	1.142516e-01	2.741134e-01	-5.762821e-01
2628000       	2.745066e+02	3.933672e-01	8.929844e-02	3.040688e-01	-4.509340e-01
