# Region      : all region0
# Cells       : 4250
# Volume      : 1.000000e+01
# Time        	average(T)	average(theta)	average(thetag)	average(thetal)	average(psi)
1314009       	2.737618e+02	3.959920e-01	1.465741e-01	2.494179e-01	-3.409047e-01
1971000       	2.741442e+02	3.983647e-01	1.141333e-01	2.842315e-01	-2.298059e-01
2628000       	2.744344e+02	3.996791e-01	8.960700e-02	3.100721e-01	-2.260843e-01
