/*--------------------------------*- C++ -*----------------------------------*\
| =========                 |                                                 |
| \\      /  F ield         | OpenFOAM: The Open Source CFD Toolbox           |
|  \\    /   O peration     | Version:  v1906                                 |
|   \\  /    A nd           | Web:      www.OpenFOAM.com                      |
|    \\/     M anipulation  |                                                 |
\*---------------------------------------------------------------------------*/
FoamFile
{
    version     2.0;
    format      ascii;
    class       volScalarField;
    location    "10368000";
    object      err;
}
// * * * * * * * * * * * * * * * * * * * * * * * * * * * * * * * * * * * * * //

dimensions      [0 1 0 0 0 0 0];


internalField   nonuniform List<scalar> 
4250
(
-0.00022992
-0.000233356
-0.000236374
-0.000238361
-0.000239215
-0.000239045
-0.000238047
-0.000236441
-0.00023444
-0.000232232
-0.000229969
-0.000227766
-0.0002257
-0.000223811
-0.000222109
-0.000220576
-0.000219175
-0.000217847
-0.000216526
-0.00021513
-0.000213575
-0.000211768
-0.000209616
-0.000207025
-0.000203903
-0.000200167
-0.000195742
-0.000190563
-0.000184573
-0.000177727
-0.000170015
-0.00016153
-0.000152577
-0.000143749
-0.000135627
-0.000126072
-0.000100841
-5.30796e-05
-3.98234e-05
-0.000109546
-0.000136762
-0.000134303
-0.000129457
-0.000123438
-0.000118279
-0.000114395
-0.000111806
-0.000110457
-0.000109477
-0.000109043
-0.000229588
-0.000233044
-0.000236093
-0.00023811
-0.000238993
-0.000238848
-0.000237869
-0.000236278
-0.000234287
-0.000232086
-0.000229827
-0.000227626
-0.000225559
-0.00022367
-0.000221967
-0.000220434
-0.000219033
-0.000217708
-0.000216389
-0.000214998
-0.00021345
-0.000211652
-0.000209511
-0.000206932
-0.000203825
-0.000200106
-0.000195699
-0.000190539
-0.000184569
-0.000177744
-0.00017005
-0.000161577
-0.00015262
-0.000143763
-0.000135601
-0.000126204
-0.000101655
-5.07054e-05
-6.686e-05
-0.00010946
-0.00013684
-0.000134533
-0.000129683
-0.000123607
-0.000118395
-0.000114467
-0.000111843
-0.000110483
-0.000109488
-0.000109043
-0.000228976
-0.000232498
-0.000235591
-0.000237647
-0.000238563
-0.000238447
-0.000237492
-0.00023592
-0.000233944
-0.000231754
-0.000229503
-0.000227308
-0.000225247
-0.000223361
-0.000221662
-0.000220133
-0.000218736
-0.000217416
-0.000216105
-0.000214723
-0.000213185
-0.0002114
-0.000209274
-0.000206712
-0.000203625
-0.000199927
-0.000195544
-0.00019041
-0.000184468
-0.000177671
-0.000170006
-0.000161556
-0.000152608
-0.00014374
-0.000135578
-0.000126474
-0.000103257
-4.95453e-05
-4.56484e-05
-0.000109469
-0.000137347
-0.000134817
-0.000129931
-0.000123769
-0.000118496
-0.000114525
-0.000111865
-0.000110504
-0.000109493
-0.000109038
-0.000228092
-0.000231717
-0.000234868
-0.000236971
-0.000237926
-0.000237843
-0.000236916
-0.000235368
-0.000233411
-0.000231237
-0.000228999
-0.000226814
-0.000224761
-0.000222884
-0.000221192
-0.000219671
-0.000218283
-0.000216972
-0.000215672
-0.000214302
-0.000212779
-0.00021101
-0.000208903
-0.000206363
-0.0002033
-0.000199628
-0.000195274
-0.000190171
-0.000184263
-0.000177503
-0.000169874
-0.000161457
-0.000152529
-0.000143661
-0.000135516
-0.000126757
-0.000105196
-5.04167e-05
-4.00432e-05
-0.000146948
-0.000138985
-0.000135178
-0.000130203
-0.000123925
-0.000118585
-0.000114569
-0.000111873
-0.000110522
-0.000109492
-0.000109028
-0.000226945
-0.000230705
-0.000233928
-0.000236084
-0.000237083
-0.000237037
-0.000236143
-0.000234622
-0.000232689
-0.000230535
-0.000228314
-0.000226144
-0.000224104
-0.000222239
-0.000220558
-0.000219049
-0.000217673
-0.000216376
-0.000215089
-0.000213736
-0.00021223
-0.000210482
-0.000208398
-0.000205883
-0.000202848
-0.000199208
-0.000194887
-0.000189821
-0.000183954
-0.000177236
-0.000169652
-0.000161275
-0.000152375
-0.000143516
-0.000135396
-0.000126996
-0.00010721
-5.22887e-05
-3.17869e-05
-0.000144186
-0.000141057
-0.00013562
-0.000130501
-0.000124076
-0.000118661
-0.0001146
-0.000111867
-0.000110535
-0.000109485
-0.000109013
-0.000225547
-0.000229467
-0.000232774
-0.000234989
-0.000236037
-0.000236033
-0.000235175
-0.000233685
-0.00023178
-0.00022965
-0.00022745
-0.000225299
-0.000223277
-0.000221427
-0.000219763
-0.000218268
-0.000216908
-0.000215627
-0.000214358
-0.000213024
-0.00021154
-0.000209816
-0.000207758
-0.000205273
-0.00020227
-0.000198665
-0.000194382
-0.000189359
-0.000183537
-0.000176869
-0.000169336
-0.000161007
-0.000152144
-0.0001433
-0.000135208
-0.000127158
-0.000109186
-5.52942e-05
-2.24627e-05
-0.000144863
-0.000181792
-0.000136649
-0.00013083
-0.000124222
-0.000118724
-0.000114618
-0.000111845
-0.000110545
-0.000109473
-0.000108992
-0.000223909
-0.000228011
-0.000231412
-0.000233692
-0.000234793
-0.000234834
-0.000234015
-0.000232561
-0.000230688
-0.000228586
-0.000226412
-0.000224284
-0.000222283
-0.000220452
-0.000218807
-0.000217331
-0.000215989
-0.000214728
-0.000213481
-0.000212169
-0.00021071
-0.000209012
-0.000206984
-0.000204531
-0.000201564
-0.000197999
-0.00019376
-0.000188783
-0.000183012
-0.0001764
-0.000168925
-0.000160652
-0.000151832
-0.000143011
-0.000134949
-0.000127224
-0.000111042
-5.93102e-05
-1.3148e-05
-0.000146186
-0.000183838
-0.000185864
-0.000131738
-0.000124367
-0.000118775
-0.000114623
-0.000111809
-0.000110553
-0.000109455
-0.000108967
-0.000222046
-0.000226344
-0.000229848
-0.000232199
-0.000233356
-0.000233445
-0.00023267
-0.000231255
-0.000229417
-0.000227347
-0.000225202
-0.000223101
-0.000221125
-0.000219318
-0.000217694
-0.00021624
-0.000214921
-0.000213682
-0.000212458
-0.000211172
-0.00020974
-0.000208073
-0.000206077
-0.000203661
-0.000200734
-0.000197211
-0.000193019
-0.000188094
-0.000182379
-0.000175829
-0.000168419
-0.000160209
-0.000151439
-0.000142648
-0.000134614
-0.000127182
-0.000112719
-6.40717e-05
-5.06054e-06
-0.000148013
-0.000186608
-0.000177295
-0.000132683
-0.00012451
-0.000118814
-0.000114616
-0.000111758
-0.000110558
-0.000109432
-0.000108937
-0.000219972
-0.000224476
-0.00022809
-0.000230516
-0.000231732
-0.000231874
-0.000231145
-0.000229773
-0.000227974
-0.00022594
-0.000223827
-0.000221756
-0.000219808
-0.000218027
-0.000216429
-0.000215
-0.000213706
-0.000212493
-0.000211295
-0.000210037
-0.000208635
-0.000207001
-0.000205041
-0.000202664
-0.00019978
-0.000196304
-0.000192163
-0.000187293
-0.00018164
-0.000175156
-0.000167817
-0.000159676
-0.000150965
-0.000142209
-0.000134205
-0.000127028
-0.000114171
-6.92628e-05
7.73361e-07
-0.000149887
-0.000189401
-0.000177645
-0.000167669
-0.000124988
-0.000118843
-0.000114598
-0.000111691
-0.000110561
-0.000109405
-0.000108902
-0.0002177
-0.000222418
-0.000226148
-0.000228652
-0.000229931
-0.000230127
-0.000229448
-0.000228121
-0.000226364
-0.000224369
-0.000222292
-0.000220255
-0.000218337
-0.000216587
-0.000215017
-0.000213616
-0.000212349
-0.000211164
-0.000209995
-0.000208768
-0.000207398
-0.000205799
-0.000203878
-0.000201543
-0.000198705
-0.000195279
-0.000191193
-0.000186383
-0.000180795
-0.000174383
-0.000167121
-0.000159056
-0.000150411
-0.000141697
-0.000133722
-0.000126761
-0.000115372
-7.45805e-05
3.69485e-06
-0.00015146
-0.000191492
-0.000178048
-0.000163291
-0.000125506
-0.000118862
-0.000114569
-0.000111608
-0.000110563
-0.000109372
-0.000108862
-0.000215248
-0.000220182
-0.000224032
-0.000226617
-0.000227961
-0.000228213
-0.000227585
-0.000226307
-0.000224595
-0.000222641
-0.000220604
-0.000218603
-0.00021672
-0.000215002
-0.000213463
-0.000212092
-0.000210855
-0.0002097
-0.000208563
-0.000207368
-0.000206034
-0.000204472
-0.000202592
-0.000200302
-0.000197512
-0.00019414
-0.000190112
-0.000185365
-0.000179847
-0.000173511
-0.000166331
-0.00015835
-0.000149776
-0.000141112
-0.000133167
-0.000126386
-0.000116308
-7.97722e-05
3.47046e-06
-0.000152483
-0.000192503
-0.000178111
-0.000162269
-0.000154159
-0.000119132
-0.000114532
-0.000111508
-0.000110566
-0.000109334
-0.000108818
-0.000212629
-0.000217781
-0.000221752
-0.00022442
-0.00022583
-0.00022614
-0.000225567
-0.000224339
-0.000222675
-0.000220766
-0.000218771
-0.000216809
-0.000214963
-0.00021328
-0.000211774
-0.000210436
-0.00020923
-0.000208108
-0.000207004
-0.000205844
-0.000204546
-0.000203024
-0.000201187
-0.000198944
-0.000196206
-0.00019289
-0.000188923
-0.000184243
-0.000178799
-0.000172544
-0.000165451
-0.000157558
-0.000149063
-0.000140455
-0.000132543
-0.00012591
-0.000116978
-8.4649e-05
2.5196e-07
-0.000152809
-0.000192233
-0.000177512
-0.000161135
-0.000150457
-0.000119439
-0.000114488
-0.000111391
-0.000110569
-0.000109292
-0.000108769
-0.000209861
-0.000215226
-0.00021932
-0.000222073
-0.000223549
-0.00022392
-0.000223402
-0.000222226
-0.000220612
-0.000218751
-0.0002168
-0.00021488
-0.000213073
-0.000211427
-0.000209957
-0.000208653
-0.000207482
-0.000206393
-0.000205324
-0.0002042
-0.000202941
-0.000201461
-0.000199669
-0.000197475
-0.00019479
-0.000191533
-0.00018763
-0.000183021
-0.000177653
-0.000171483
-0.000164482
-0.000156683
-0.000148274
-0.000139728
-0.000131852
-0.000125339
-0.000117391
-8.90842e-05
-5.52198e-06
-0.000152383
-0.000190637
-0.000176132
-0.000159782
-0.000148939
-0.00014525
-0.000114664
-0.000111257
-0.000110574
-0.000109245
-0.000108716
-0.000206959
-0.000212533
-0.000216749
-0.000219585
-0.00022113
-0.00022156
-0.000221099
-0.000219978
-0.000218416
-0.000216604
-0.0002147
-0.000212824
-0.000211059
-0.000209451
-0.000208019
-0.000206751
-0.000205615
-0.000204563
-0.00020353
-0.000202444
-0.000201225
-0.000199788
-0.000198042
-0.000195899
-0.000193271
-0.000190074
-0.000186238
-0.000181701
-0.000176414
-0.000170332
-0.000163427
-0.000155728
-0.000147411
-0.000138934
-0.000131097
-0.000124682
-0.000117565
-9.30051e-05
-1.3244e-05
-0.000151227
-0.000187789
-0.000173955
-0.000158069
-0.000147349
-0.000141467
-0.000114874
-0.000111106
-0.000110583
-0.000109194
-0.000108659
-0.000203937
-0.000209714
-0.00021405
-0.000216969
-0.000218581
-0.000219073
-0.00021867
-0.000217605
-0.000216097
-0.000214336
-0.000212481
-0.00021065
-0.000208928
-0.000207361
-0.000205968
-0.000204738
-0.000203639
-0.000202623
-0.000201628
-0.000200582
-0.000199404
-0.000198011
-0.000196314
-0.000194223
-0.000191652
-0.000188519
-0.000184751
-0.00018029
-0.000175085
-0.000169095
-0.000162291
-0.000154695
-0.000146476
-0.000138074
-0.000130282
-0.000123946
-0.000117522
-9.6381e-05
-2.22481e-05
-0.000149422
-0.000183857
-0.000171038
-0.000155968
-0.000145678
-0.000139783
-0.000140484
-0.000111153
-0.000110597
-0.000109137
-0.000108597
-0.000200813
-0.000206783
-0.000211235
-0.000214236
-0.000215916
-0.000216469
-0.000216125
-0.000215117
-0.000213663
-0.000211955
-0.00021015
-0.000208367
-0.000206689
-0.000205165
-0.000203812
-0.000202621
-0.00020156
-0.000200583
-0.000199626
-0.00019862
-0.000197485
-0.000196137
-0.000194489
-0.000192452
-0.00018994
-0.000186871
-0.000183175
-0.000178791
-0.000173672
-0.000167776
-0.000161075
-0.000153588
-0.000145472
-0.000137153
-0.00012941
-0.00012314
-0.000117284
-9.92118e-05
-3.18957e-05
-0.000147081
-0.000179062
-0.000167489
-0.000153502
-0.00014384
-0.000138096
-0.000135761
-0.000111212
-0.000110619
-0.000109077
-0.000108531
-0.0001976
-0.000203753
-0.000208318
-0.000211399
-0.000213144
-0.000213759
-0.000213473
-0.000212523
-0.000211126
-0.000209472
-0.000207718
-0.000205984
-0.000204352
-0.000202871
-0.00020156
-0.000200408
-0.000199387
-0.000198448
-0.000197531
-0.000196566
-0.000195474
-0.000194172
-0.000192574
-0.000190592
-0.000188141
-0.000185138
-0.000181514
-0.00017721
-0.000172178
-0.000166379
-0.000159785
-0.00015241
-0.000144403
-0.000136171
-0.000128483
-0.00012227
-0.000116877
-0.000101518
-4.16323e-05
-0.000144335
-0.000173647
-0.000163446
-0.000150722
-0.000141827
-0.000136428
-0.000133953
-0.000141822
-0.000110904
-0.000109013
-0.000108461
-0.000194314
-0.000200638
-0.00020531
-0.000208468
-0.000210278
-0.000210953
-0.000210727
-0.000209835
-0.000208494
-0.000206895
-0.000205194
-0.000203509
-0.000201925
-0.000200489
-0.000199219
-0.000198109
-0.000197127
-0.000196228
-0.000195351
-0.000194426
-0.000193378
-0.000192124
-0.000190577
-0.000188651
-0.00018626
-0.000183325
-0.000179774
-0.000175551
-0.000170609
-0.000164909
-0.000158424
-0.000151166
-0.000143271
-0.000135133
-0.000127505
-0.000121342
-0.000116322
-0.000103335
-5.10172e-05
-0.000141311
-0.000167849
-0.000159057
-0.000147696
-0.000139654
-0.000134696
-0.000132206
-0.000131754
-0.000111197
-0.000108947
-0.000108387
-0.000190967
-0.000197451
-0.000202224
-0.000205455
-0.000207328
-0.000208063
-0.000207895
-0.000207062
-0.000205778
-0.000204235
-0.000202587
-0.000200953
-0.000199416
-0.000198026
-0.000196799
-0.00019573
-0.000194788
-0.000193929
-0.000193092
-0.00019221
-0.000191206
-0.000189998
-0.000188503
-0.000186633
-0.000184304
-0.000181437
-0.000177962
-0.000173821
-0.00016897
-0.000163371
-0.000156997
-0.000149858
-0.00014208
-0.000134042
-0.000126478
-0.000120362
-0.000115643
-0.000104703
-5.97308e-05
-0.000138128
-0.000161884
-0.000154465
-0.000144498
-0.000137352
-0.000132889
-0.000130592
-0.000129762
-0.000111364
-0.000108875
-0.00010831
-0.000187573
-0.000194203
-0.000199071
-0.000202373
-0.000204306
-0.000205099
-0.00020499
-0.000204214
-0.000202988
-0.000201501
-0.000199907
-0.000198324
-0.000196836
-0.000195491
-0.000194308
-0.00019328
-0.000192379
-0.00019156
-0.000190764
-0.000189923
-0.000188963
-0.000187803
-0.000186359
-0.000184546
-0.00018228
-0.000179482
-0.000176082
-0.000172025
-0.000167266
-0.000161769
-0.000155508
-0.000148491
-0.000140834
-0.0001329
-0.000125407
-0.000119336
-0.000114857
-0.000105668
-6.75668e-05
-0.000134886
-0.000155932
-0.000149801
-0.000141202
-0.000134958
-0.000131013
-0.00012897
-0.000128265
-0.000129695
-0.000108938
-0.00010823
-0.000184144
-0.000190908
-0.000195864
-0.000199231
-0.000201223
-0.000202072
-0.00020202
-0.000201302
-0.000200134
-0.000198703
-0.000197163
-0.000195632
-0.000194192
-0.000192893
-0.000191754
-0.000190768
-0.000189907
-0.000189128
-0.000188372
-0.000187574
-0.000186658
-0.000185546
-0.000184153
-0.000182397
-0.000180193
-0.000177464
-0.000174141
-0.000170168
-0.000165502
-0.000160109
-0.000153963
-0.000147069
-0.000139537
-0.000131712
-0.000124294
-0.000118269
-0.000113981
-0.000106275
-7.4416e-05
-0.000131662
-0.000150137
-0.000145172
-0.000137875
-0.000132507
-0.000129082
-0.000127321
-0.000126725
-0.000127338
-0.000109036
-0.000108148
-0.000180692
-0.000187576
-0.000192612
-0.00019604
-0.000198088
-0.000198992
-0.000198996
-0.000198336
-0.000197225
-0.00019585
-0.000194364
-0.000192884
-0.000191493
-0.000190241
-0.000189145
-0.000188201
-0.00018738
-0.000186641
-0.000185926
-0.000185169
-0.000184297
-0.000183232
-0.000181892
-0.000180192
-0.000178051
-0.000175392
-0.000172145
-0.000168257
-0.000163684
-0.000158395
-0.000152365
-0.000145596
-0.000138192
-0.000130479
-0.000123143
-0.000117164
-0.000113029
-0.000106568
-8.02459e-05
-0.000128517
-0.000144599
-0.000140666
-0.000134573
-0.000130036
-0.000127116
-0.000125643
-0.000125216
-0.000125813
-0.000131401
-0.000108232
-0.000177228
-0.000184218
-0.000189326
-0.000192812
-0.000194911
-0.000195869
-0.000195928
-0.000195324
-0.00019427
-0.000192951
-0.000191519
-0.000190091
-0.000188749
-0.000187542
-0.000186489
-0.000185587
-0.000184807
-0.000184107
-0.000183432
-0.000182717
-0.000181888
-0.00018087
-0.000179581
-0.000177938
-0.00017586
-0.00017327
-0.0001701
-0.000166297
-0.000161818
-0.000156633
-0.000150719
-0.000144078
-0.000136802
-0.000129207
-0.000121956
-0.000116025
-0.000112013
-0.000106589
-8.50809e-05
-0.00012549
-0.000139388
-0.000136346
-0.000131343
-0.000127575
-0.000125132
-0.000123943
-0.000123707
-0.000124299
-0.000126216
-0.000108354
-0.000173761
-0.000180845
-0.000186017
-0.000189554
-0.000191703
-0.000192712
-0.000192825
-0.000192276
-0.000191278
-0.000190014
-0.000188636
-0.000187259
-0.000185965
-0.000184804
-0.000183795
-0.000182934
-0.000182193
-0.000181533
-0.000180897
-0.000180223
-0.000179438
-0.000178466
-0.000177227
-0.000175641
-0.000173625
-0.000171104
-0.000168011
-0.000164293
-0.000159909
-0.000154829
-0.000149031
-0.000142517
-0.000135373
-0.000127898
-0.000120736
-0.000114856
-0.000110945
-0.000106377
-8.89832e-05
-0.000122604
-0.00013454
-0.000132252
-0.000128218
-0.00012515
-0.000123149
-0.000122229
-0.00012219
-0.000122884
-0.000124487
-0.0001084
-0.000170301
-0.000177465
-0.000182694
-0.000186278
-0.000188473
-0.00018953
-0.000189695
-0.0001892
-0.000188257
-0.000187048
-0.000185723
-0.000184397
-0.000183152
-0.000182036
-0.00018107
-0.000180249
-0.000179548
-0.000178926
-0.000178329
-0.000177695
-0.000176952
-0.000176026
-0.000174838
-0.000173307
-0.000171353
-0.000168901
-0.000165885
-0.000162251
-0.000157961
-0.000152986
-0.000147305
-0.000140919
-0.000133908
-0.000126556
-0.000119487
-0.00011366
-0.000109831
-0.000105966
-9.20382e-05
-0.000119872
-0.000130068
-0.000128408
-0.000125221
-0.00012278
-0.00012118
-0.000120511
-0.000120664
-0.000121497
-0.000123147
-0.000126451
-0.000166856
-0.000174087
-0.000179365
-0.000182991
-0.000185228
-0.000186332
-0.000186547
-0.000186105
-0.000185217
-0.000184062
-0.000182789
-0.000181513
-0.000180315
-0.000179244
-0.00017832
-0.000177539
-0.000176877
-0.000176293
-0.000175734
-0.000175139
-0.000174439
-0.000173558
-0.000172419
-0.000170943
-0.00016905
-0.000166666
-0.000163726
-0.000160177
-0.00015598
-0.000151109
-0.000145545
-0.000139288
-0.000132411
-0.000125184
-0.000118212
-0.000112441
-0.000108681
-0.000105387
-9.43422e-05
-0.000117294
-0.000125967
-0.000124822
-0.000122368
-0.000120479
-0.000119239
-0.000118797
-0.000119134
-0.00012012
-0.000121793
-0.000123785
-0.000163435
-0.00017072
-0.000176039
-0.000179701
-0.000181978
-0.000183125
-0.000183388
-0.000182998
-0.000182163
-0.000181061
-0.00017984
-0.000178614
-0.000177462
-0.000176435
-0.000175552
-0.000174811
-0.000174187
-0.00017364
-0.000173119
-0.000172563
-0.000171903
-0.000171066
-0.000169976
-0.000168554
-0.000166721
-0.000164405
-0.000161541
-0.000158075
-0.000153972
-0.000149205
-0.000143757
-0.000137627
-0.000130884
-0.000123785
-0.000116913
-0.000111202
-0.0001075
-0.000104668
-9.59942e-05
-0.000114866
-0.00012222
-0.000121491
-0.000119663
-0.000118257
-0.000117335
-0.000117096
-0.000117604
-0.000118749
-0.000120506
-0.000122355
-0.000160043
-0.000167371
-0.000172723
-0.000176417
-0.000178729
-0.000179917
-0.000180227
-0.000179887
-0.000179103
-0.000178053
-0.000176883
-0.000175706
-0.0001746
-0.000173616
-0.000172774
-0.000172071
-0.000171484
-0.000170974
-0.000170489
-0.000169971
-0.000169351
-0.000168557
-0.000167515
-0.000166146
-0.000164373
-0.000162124
-0.000159334
-0.000155952
-0.00015194
-0.000147277
-0.000141944
-0.000135942
-0.000129334
-0.000122363
-0.000115594
-0.000109944
-0.000106293
-0.000103832
-9.70896e-05
-0.000112578
-0.000118801
-0.000118404
-0.000117106
-0.000116118
-0.000115474
-0.000115414
-0.000116079
-0.000117383
-0.000119247
-0.000121157
-0.000156687
-0.000164046
-0.000169424
-0.000173145
-0.000175489
-0.000176716
-0.00017707
-0.000176778
-0.000176045
-0.000175046
-0.000173925
-0.000172795
-0.000171735
-0.000170794
-0.000169991
-0.000169326
-0.000168775
-0.0001683
-0.000167851
-0.000167369
-0.000166788
-0.000166037
-0.000165041
-0.000163724
-0.00016201
-0.000159826
-0.00015711
-0.00015381
-0.000149891
-0.000145329
-0.00014011
-0.000134235
-0.000127762
-0.000120921
-0.000114258
-0.000108672
-0.000105065
-0.000102901
-9.77169e-05
-0.000110419
-0.000115679
-0.000115545
-0.000114692
-0.000114065
-0.000113662
-0.000113755
-0.000114562
-0.00011602
-0.000118006
-0.000120034
-0.000153372
-0.000160751
-0.000166148
-0.000169891
-0.000172264
-0.000173527
-0.000173923
-0.000173678
-0.000172994
-0.000172044
-0.000170972
-0.000169889
-0.000168873
-0.000167973
-0.000167209
-0.000166581
-0.000166064
-0.000165624
-0.000165209
-0.000164763
-0.00016422
-0.00016351
-0.00016256
-0.000161294
-0.000159637
-0.000157519
-0.000154875
-0.000151656
-0.000147827
-0.000143366
-0.000138261
-0.000132511
-0.000126172
-0.000119461
-0.000112906
-0.000107387
-0.000103821
-0.000101891
-9.79553e-05
-0.000108376
-0.000112821
-0.000112894
-0.000112413
-0.000112095
-0.000111899
-0.000112125
-0.000113058
-0.000114664
-0.000116776
-0.00011894
-0.000150104
-0.000157493
-0.000162901
-0.000166661
-0.000169059
-0.000170356
-0.000170792
-0.000170592
-0.000169956
-0.000169054
-0.00016803
-0.000166992
-0.000166019
-0.000165159
-0.000164434
-0.00016384
-0.000163358
-0.000162951
-0.00016257
-0.000162158
-0.000161652
-0.000160982
-0.000160076
-0.00015886
-0.00015726
-0.000155205
-0.000152632
-0.000149494
-0.000145754
-0.000141393
-0.0001364
-0.000130774
-0.000124568
-0.000117988
-0.000111542
-0.000106092
-0.000102565
-0.000100819
-9.78745e-05
-0.000106436
-0.000110198
-0.00011043
-0.000110259
-0.000110205
-0.000110187
-0.000110525
-0.000111569
-0.000113316
-0.000115554
-0.000117858
-0.000146886
-0.000154275
-0.000159688
-0.000163461
-0.000165881
-0.000167209
-0.000167683
-0.000167527
-0.000166936
-0.000166081
-0.000165103
-0.00016411
-0.000163179
-0.000162358
-0.000161669
-0.00016111
-0.000160661
-0.000160286
-0.000159938
-0.000159559
-0.000159089
-0.000158458
-0.000157595
-0.000156427
-0.000154882
-0.000152889
-0.000150387
-0.000147327
-0.000143675
-0.000139413
-0.00013453
-0.000129027
-0.000122953
-0.000116504
-0.000110168
-0.000104789
-0.000101298
-9.96968e-05
-9.75344e-05
-0.000104586
-0.000107777
-0.000108132
-0.00010822
-0.00010839
-0.000108525
-0.000108956
-0.000110099
-0.000111978
-0.000114342
-0.000116783
-0.000143722
-0.000151102
-0.000156514
-0.000160296
-0.000162735
-0.00016409
-0.000164601
-0.000164485
-0.000163939
-0.00016313
-0.000162196
-0.000161246
-0.000160356
-0.000159573
-0.00015892
-0.000158395
-0.000157978
-0.000157634
-0.000157316
-0.00015697
-0.000156534
-0.00015594
-0.00015512
-0.000153999
-0.000152508
-0.000150576
-0.000148143
-0.00014516
-0.000141595
-0.000137429
-0.000132655
-0.000127273
-0.000121331
-0.000115012
-0.000108787
-0.000103481
-0.000100025
-9.85356e-05
-9.69859e-05
-0.000102815
-0.000105531
-0.000105981
-0.000106282
-0.000106646
-0.000106911
-0.00010742
-0.000108648
-0.000110651
-0.000113139
-0.00011571
-0.000140616
-0.000147977
-0.000153383
-0.000157169
-0.000159623
-0.000161004
-0.000161549
-0.000161473
-0.00016097
-0.000160204
-0.000159314
-0.000158406
-0.000157555
-0.00015681
-0.000156191
-0.000155698
-0.000155312
-0.000154998
-0.00015471
-0.000154395
-0.000153992
-0.000153435
-0.000152655
-0.000151581
-0.000150141
-0.000148269
-0.000145903
-0.000142997
-0.000139517
-0.000135446
-0.000130778
-0.000125516
-0.000119703
-0.000113514
-0.000107401
-0.000102169
-9.8748e-05
-9.73446e-05
-9.62714e-05
-0.000101114
-0.000103437
-0.000103958
-0.000104437
-0.000104966
-0.000105343
-0.000105917
-0.000107218
-0.000109337
-0.000111944
-0.000114641
-0.000137568
-0.000144905
-0.000150297
-0.000154084
-0.000156551
-0.000157956
-0.000158532
-0.000158494
-0.000158032
-0.000157309
-0.000156461
-0.000155593
-0.000154781
-0.000154071
-0.000153486
-0.000153024
-0.000152667
-0.000152382
-0.000152123
-0.000151838
-0.000151467
-0.000150945
-0.000150204
-0.000149175
-0.000147786
-0.000145972
-0.000143672
-0.00014084
-0.000137444
-0.000133467
-0.000128904
-0.000123759
-0.000118073
-0.000112013
-0.000106012
-0.000100856
-9.74692e-05
-9.61317e-05
-9.54262e-05
-9.94729e-05
-0.000101471
-0.000102047
-0.000102673
-0.000103345
-0.000103818
-0.000104445
-0.000105809
-0.000108036
-0.00011076
-0.000113575
-0.000134583
-0.000141886
-0.000147262
-0.000151045
-0.000153522
-0.000154947
-0.000155554
-0.000155552
-0.000155129
-0.000154447
-0.00015364
-0.000152811
-0.000152036
-0.000151361
-0.000150808
-0.000150376
-0.000150047
-0.00014979
-0.000149559
-0.000149303
-0.000148962
-0.000148474
-0.000147771
-0.000146785
-0.000145445
-0.000143688
-0.000141453
-0.000138694
-0.000135379
-0.000131494
-0.000127034
-0.000122004
-0.000116444
-0.000110511
-0.000104622
-9.95433e-05
-9.61908e-05
-9.49033e-05
-9.44794e-05
-9.78851e-05
-9.96153e-05
-0.000100232
-0.000100982
-0.000101777
-0.000102334
-0.000103003
-0.000104422
-0.00010675
-0.000109586
-0.000112513
-0.000131661
-0.000138925
-0.000144278
-0.000148054
-0.000150538
-0.000151983
-0.000152617
-0.000152649
-0.000152264
-0.000151621
-0.000150854
-0.000150063
-0.000149324
-0.000148682
-0.00014816
-0.000147757
-0.000147456
-0.000147224
-0.00014702
-0.000146791
-0.00014648
-0.000146024
-0.000145358
-0.000144414
-0.000143123
-0.00014142
-0.000139248
-0.00013656
-0.000133326
-0.00012953
-0.000125171
-0.000120255
-0.000114818
-0.000109011
-0.000103234
-9.82327e-05
-9.4915e-05
-9.3665e-05
-9.34547e-05
-9.63441e-05
-9.78539e-05
-9.85008e-05
-9.93539e-05
-0.000100257
-0.000100887
-0.000101592
-0.000103057
-0.000105478
-0.000108423
-0.000111456
-0.000128804
-0.000136022
-0.000141348
-0.000145114
-0.000147603
-0.000149064
-0.000149724
-0.000149788
-0.00014944
-0.000148835
-0.000148106
-0.000147352
-0.000146647
-0.000146037
-0.000145545
-0.000145169
-0.000144895
-0.000144689
-0.00014451
-0.000144307
-0.000144024
-0.0001436
-0.000142969
-0.000142065
-0.00014082
-0.000139172
-0.000137061
-0.000134442
-0.000131286
-0.000127579
-0.000123319
-0.000118513
-0.000113198
-0.000107515
-0.000101849
-9.6926e-05
-9.36433e-05
-9.24214e-05
-9.23713e-05
-9.48447e-05
-9.61734e-05
-9.68427e-05
-9.77825e-05
-9.87803e-05
-9.94751e-05
-0.000100208
-0.000101713
-0.000104222
-0.000107271
-0.000110405
-0.000126012
-0.000133179
-0.000138474
-0.000142227
-0.000144718
-0.000146194
-0.000146878
-0.000146973
-0.000146659
-0.000146091
-0.000145398
-0.000144679
-0.000144008
-0.000143429
-0.000142965
-0.000142616
-0.000142367
-0.000142185
-0.00014203
-0.000141853
-0.000141597
-0.000141202
-0.000140605
-0.00013974
-0.000138541
-0.000136944
-0.000134893
-0.000132343
-0.000129264
-0.000125642
-0.000121479
-0.000116781
-0.000111585
-0.000106024
-0.000100469
-9.56247e-05
-9.23775e-05
-9.11765e-05
-9.12449e-05
-9.33826e-05
-9.45624e-05
-9.52481e-05
-9.62612e-05
-9.73428e-05
-9.80954e-05
-9.88522e-05
-0.00010039
-0.000102981
-0.000106131
-0.000109361
-0.000123287
-0.000130397
-0.000135658
-0.000139395
-0.000141886
-0.000143374
-0.00014408
-0.000144204
-0.000143924
-0.000143391
-0.000142733
-0.000142048
-0.000141409
-0.00014086
-0.000140423
-0.0001401
-0.000139874
-0.000139716
-0.000139584
-0.00013943
-0.0001392
-0.000138834
-0.00013827
-0.000137443
-0.000136287
-0.000134741
-0.000132748
-0.000130264
-0.000127259
-0.000123722
-0.000119653
-0.000115061
-0.000109982
-0.000104541
-9.90956e-05
-9.43302e-05
-9.11191e-05
-8.99334e-05
-9.0088e-05
-9.19545e-05
-9.30119e-05
-9.37094e-05
-9.47846e-05
-9.5941e-05
-9.67458e-05
-9.7522e-05
-9.90883e-05
-0.000101754
-0.000105002
-0.000108323
-0.000120628
-0.000127678
-0.0001329
-0.000136619
-0.000139107
-0.000140606
-0.000141333
-0.000141485
-0.000141235
-0.000140736
-0.000140112
-0.00013946
-0.000138851
-0.000138331
-0.000137921
-0.000137622
-0.000137419
-0.000137282
-0.000137172
-0.000137042
-0.000136836
-0.000136498
-0.000135965
-0.000135174
-0.000134061
-0.000132564
-0.000130627
-0.000128207
-0.000125276
-0.000121821
-0.000117844
-0.000113356
-0.00010839
-0.000103068
-9.77304e-05
-9.30439e-05
-8.98694e-05
-8.8695e-05
-8.89107e-05
-9.05575e-05
-9.15141e-05
-9.222e-05
-9.3348e-05
-9.45717e-05
-9.54241e-05
-9.62165e-05
-9.78069e-05
-0.000100544
-0.000103884
-0.000107293
-0.000118035
-0.000125021
-0.000130202
-0.0001339
-0.000136384
-0.000137892
-0.000138638
-0.000138815
-0.000138596
-0.000138129
-0.000137537
-0.000136916
-0.000136337
-0.000135844
-0.000135459
-0.000135184
-0.000135002
-0.000134887
-0.000134798
-0.000134689
-0.000134507
-0.000134195
-0.000133692
-0.000132936
-0.000131864
-0.000130414
-0.000128532
-0.000126175
-0.000123315
-0.00011994
-0.000116053
-0.000111666
-0.000106811
-0.000101605
-9.63748e-05
-9.17671e-05
-8.86296e-05
-8.74637e-05
-8.77213e-05
-8.91896e-05
-9.00631e-05
-9.07745e-05
-9.19478e-05
-9.32322e-05
-9.41286e-05
-9.49347e-05
-9.65454e-05
-9.93477e-05
-0.000102778
-0.000106271
-0.000115509
-0.000122426
-0.000127564
-0.000131239
-0.000133717
-0.000135232
-0.000135995
-0.000136196
-0.000136006
-0.00013557
-0.000135009
-0.000134419
-0.000133868
-0.000133402
-0.000133041
-0.000132787
-0.000132626
-0.000132531
-0.000132462
-0.000132373
-0.000132214
-0.000131927
-0.000131453
-0.00013073
-0.000129697
-0.000128293
-0.000126465
-0.000124169
-0.000121378
-0.000118081
-0.000114282
-0.000109993
-0.000105247
-0.000100155
-9.50301e-05
-9.05008e-05
-8.74009e-05
-8.62413e-05
-8.65263e-05
-8.78489e-05
-8.86539e-05
-8.93687e-05
-9.05809e-05
-9.19204e-05
-9.28577e-05
-9.36756e-05
-9.53034e-05
-9.81668e-05
-0.000101683
-0.000105257
-0.00011305
-0.000119895
-0.000124987
-0.000128636
-0.000131106
-0.000132627
-0.000133406
-0.00013363
-0.000133467
-0.00013306
-0.000132529
-0.000131968
-0.000131444
-0.000131003
-0.000130665
-0.000130433
-0.000130292
-0.000130215
-0.000130165
-0.000130096
-0.000129958
-0.000129695
-0.000129249
-0.000128558
-0.000127563
-0.000126204
-0.000124427
-0.000122191
-0.000119467
-0.000116246
-0.000112533
-0.00010834
-0.0001037
-9.87188e-05
-9.36975e-05
-8.92463e-05
-8.61842e-05
-8.50296e-05
-8.53308e-05
-8.65341e-05
-8.72824e-05
-8.79991e-05
-8.92446e-05
-9.06345e-05
-9.16101e-05
-9.24385e-05
-9.40805e-05
-9.70007e-05
-0.0001006
-0.000104252
-0.000110655
-0.000117426
-0.00012247
-0.000126093
-0.000128553
-0.000130078
-0.000130871
-0.000131117
-0.00013098
-0.000130601
-0.000130098
-0.000129565
-0.000129068
-0.00012865
-0.000128335
-0.000128122
-0.000128
-0.000127941
-0.000127908
-0.000127858
-0.00012774
-0.0001275
-0.00012708
-0.000126421
-0.000125462
-0.000124146
-0.000122419
-0.000120241
-0.000117583
-0.000114436
-0.000110806
-0.000106706
-0.00010217
-9.72973e-05
-9.23781e-05
-8.80043e-05
-8.49805e-05
-8.38301e-05
-8.41392e-05
-8.52443e-05
-8.59454e-05
-8.66627e-05
-8.79369e-05
-8.9373e-05
-9.03849e-05
-9.12226e-05
-9.28764e-05
-9.58492e-05
-9.95275e-05
-0.000103254
-0.000108326
-0.00011502
-0.000120013
-0.000123608
-0.000126058
-0.000127585
-0.000128391
-0.000128657
-0.000128544
-0.000128192
-0.000127717