/*--------------------------------*- C++ -*----------------------------------*\
| =========                 |                                                 |
| \\      /  F ield         | OpenFOAM: The Open Source CFD Toolbox           |
|  \\    /   O peration     | Version:  v1906                                 |
|   \\  /    A nd           | Web:      www.OpenFOAM.com                      |
|    \\/     M anipulation  |                                                 |
\*---------------------------------------------------------------------------*/
FoamFile
{
    version     2.0;
    format      ascii;
    class       volScalarField;
    location    "10368000";
    object      theta;
}
// * * * * * * * * * * * * * * * * * * * * * * * * * * * * * * * * * * * * * //

dimensions      [0 0 0 0 0 0 0];


internalField   nonuniform List<scalar> 
4250
(
0.39065
0.391782
0.392665
0.393437
0.394143
0.394804
0.395431
0.396028
0.3966
0.39715
0.397681
0.398194
0.398691
0.399175
0.399647
0.400108
0.400559
0.401003
0.401439
0.401869
0.402295
0.402718
0.40314
0.403564
0.403991
0.404425
0.404871
0.405332
0.405814
0.406323
0.406865
0.407444
0.408068
0.408738
0.409455
0.410213
0.410994
0.411755
0.412
0.412
0.412
0.412
0.412
0.412
0.412
0.412
0.412
0.412
0.412
0.412
0.38976
0.390871
0.391751
0.392519
0.393221
0.393879
0.394502
0.395097
0.395667
0.396215
0.396744
0.397255
0.397751
0.398234
0.398705
0.399165
0.399616
0.400059
0.400496
0.400927
0.401353
0.401777
0.4022
0.402624
0.403053
0.40349
0.403938
0.404402
0.404888
0.405402
0.40595
0.406538
0.407173
0.407859
0.408598
0.409389
0.410222
0.411079
0.411909
0.412
0.412
0.412
0.412
0.412
0.412
0.412
0.412
0.412
0.412
0.412
0.388917
0.390005
0.390877
0.39164
0.392337
0.392991
0.393611
0.394202
0.394769
0.395314
0.395841
0.39635
0.396844
0.397324
0.397794
0.398253
0.398703
0.399145
0.39958
0.400011
0.400437
0.40086
0.401283
0.401708
0.402138
0.402575
0.403024
0.40349
0.403979
0.404495
0.405047
0.405641
0.406283
0.406979
0.407734
0.408548
0.409416
0.410331
0.411281
0.412
0.412
0.412
0.412
0.412
0.412
0.412
0.412
0.412
0.412
0.412
0.38812
0.389181
0.390044
0.3908
0.391492
0.392141
0.392756
0.393344
0.393907
0.394449
0.394972
0.395478
0.395969
0.396448
0.396915
0.397371
0.39782
0.39826
0.398694
0.399123
0.399548
0.399971
0.400393
0.400817
0.401246
0.401683
0.402133
0.402599
0.403088
0.403606
0.40416
0.404757
0.405404
0.406107
0.406873
0.407702
0.408594
0.409548
0.410565
0.411569
0.412
0.412
0.412
0.412
0.412
0.412
0.412
0.412
0.412
0.412
0.387368
0.388401
0.389252
0.39
0.390686
0.391329
0.391939
0.392522
0.393081
0.393619
0.394138
0.39464
0.395129
0.395604
0.396068
0.396522
0.396968
0.397406
0.397838
0.398265
0.398688
0.39911
0.39953
0.399953
0.400381
0.400817
0.401265
0.401731
0.40222
0.402738
0.403292
0.40389
0.404539
0.405247
0.406019
0.406859
0.407768
0.408749
0.409811
0.410903
0.412
0.412
0.412
0.412
0.412
0.412
0.412
0.412
0.412
0.412
0.38666
0.387663
0.3885
0.389239
0.389917
0.390554
0.391159
0.391736
0.39229
0.392824
0.393339
0.393837
0.394322
0.394793
0.395254
0.395705
0.396148
0.396584
0.397013
0.397437
0.397858
0.398277
0.398696
0.399117
0.399543
0.399977
0.400424
0.400888
0.401375
0.401892
0.402446
0.403043
0.403693
0.404402
0.405178
0.406025
0.406945
0.407945
0.409037
0.410184
0.411308
0.412
0.412
0.412
0.412
0.412
0.412
0.412
0.412
0.412
0.385996
0.386966
0.387788
0.388516
0.389187
0.389816
0.390415
0.390987
0.391536
0.392064
0.392574
0.393069
0.393549
0.394017
0.394474
0.394921
0.39536
0.395793
0.396219
0.39664
0.397059
0.397475
0.397891
0.398309
0.398733
0.399165
0.399609
0.400071
0.400556
0.401071
0.401622
0.402218
0.402867
0.403576
0.404353
0.405204
0.406131
0.407143
0.408256
0.409443
0.410642
0.411821
0.412
0.412
0.412
0.412
0.412
0.412
0.412
0.412
0.385373
0.38631
0.387114
0.387831
0.388493
0.389116
0.389707
0.390273
0.390816
0.391339
0.391845
0.392334
0.39281
0.393273
0.393726
0.39417
0.394605
0.395034
0.395456
0.395875
0.396289
0.396702
0.397115
0.397531
0.397951
0.39838
0.398822
0.399281
0.399763
0.400275
0.400823
0.401416
0.402063
0.40277
0.403547
0.404398
0.40533
0.40635
0.407476
0.40869
0.409941
0.411235
0.412
0.412
0.412
0.412
0.412
0.412
0.412
0.412
0.38479
0.385694
0.386479
0.387184
0.387836
0.388451
0.389035
0.389595
0.390132
0.390649
0.391149
0.391633
0.392104
0.392563
0.393011
0.39345
0.393882
0.394306
0.394725
0.39514
0.395551
0.39596
0.39637
0.396782
0.397199
0.397624
0.398062
0.398518
0.398997
0.399505
0.40005
0.400639
0.401282
0.401987
0.402761
0.403612
0.404545
0.405569
0.406703
0.407936
0.409222
0.41058
0.411714
0.412
0.412
0.412
0.412
0.412
0.412
0.412
0.384247
0.385115
0.385881
0.386573
0.387215
0.387822
0.388399
0.388951
0.389482
0.389993
0.390487
0.390966
0.391432
0.391885
0.392329
0.392764
0.39319
0.393611
0.394025
0.394436
0.394843
0.395248
0.395654
0.396062
0.396476
0.396897
0.397332
0.397783
0.398258
0.398761
0.399302
0.399887
0.400526
0.401226
0.401997
0.402845
0.403777
0.404803
0.405941
0.407186
0.408497
0.409896
0.411136
0.412
0.412
0.412
0.412
0.412
0.412
0.412
0.383742
0.384574
0.38532
0.385998
0.38663
0.387227
0.387796
0.388341
0.388865
0.38937
0.389859
0.390332
0.390792
0.39124
0.391679
0.392108
0.392531
0.392946
0.393356
0.393762
0.394165
0.394567
0.394968
0.395372
0.395781
0.396199
0.396629
0.397076
0.397546
0.398045
0.398581
0.399161
0.399795
0.40049
0.401256
0.4021
0.403029
0.404054
0.405192
0.406445
0.407773
0.409197
0.410504
0.411673
0.412
0.412
0.412
0.412
0.412
0.412
0.383273
0.38407
0.384793
0.385457
0.386078
0.386666
0.387227
0.387765
0.388282
0.38878
0.389262
0.38973
0.390184
0.390627
0.39106
0.391485
0.391902
0.392313
0.392718
0.39312
0.393518
0.393915
0.394312
0.394712
0.395116
0.39553
0.395955
0.396397
0.396863
0.397357
0.397887
0.398462
0.399089
0.399779
0.400539
0.401378
0.402303
0.403324
0.40446
0.405716
0.407054
0.408494
0.409847
0.411114
0.412
0.412
0.412
0.412
0.412
0.412
0.382838
0.383599
0.384301
0.38495
0.385559
0.386138
0.386691
0.387221
0.387731
0.388222
0.388698
0.389159
0.389607
0.390045
0.390472
0.390892
0.391304
0.391709
0.39211
0.392507
0.3929
0.393293
0.393685
0.39408
0.39448
0.394889
0.395309
0.395747
0.396206
0.396695
0.39722
0.397788
0.398409
0.399092
0.399846
0.400678
0.401598
0.402614
0.403746
0.405002
0.406346
0.407794
0.409179
0.410507
0.411695
0.412
0.412
0.412
0.412
0.412
0.382438
0.383162
0.383842
0.384475
0.385073
0.385642
0.386186
0.386708
0.387211
0.387696
0.388165
0.388619
0.389062
0.389493
0.389915
0.390329
0.390735
0.391136
0.391531
0.391923
0.392312
0.392699
0.393087
0.393477
0.393872
0.394276
0.394691
0.395123
0.395578
0.39606
0.396579
0.397141
0.397755
0.398431
0.399177
0.400003
0.400915
0.401926
0.403051
0.404304
0.405649
0.4071
0.408507
0.409878
0.411163
0.412
0.412
0.412
0.412
0.412
0.382069
0.382758
0.383414
0.384032
0.384618
0.385177
0.385712
0.386226
0.386721
0.387199
0.387661
0.388109
0.388545
0.388971
0.389387
0.389795
0.390196
0.390591
0.390982
0.391368
0.391752
0.392134
0.392517
0.392902
0.393292
0.39369
0.394101
0.394527
0.394976
0.395453
0.395965
0.39652
0.397127
0.397795
0.398533
0.399351
0.400256
0.401259
0.402377
0.403625
0.404968
0.406417
0.407839
0.409239
0.410585
0.411772
0.412
0.412
0.412
0.412
0.38173
0.382384
0.383017
0.383619
0.384193
0.384741
0.385268
0.385774
0.386261
0.386732
0.387187
0.387629
0.388058
0.388478
0.388888
0.38929
0.389685
0.390075
0.39046
0.390841
0.39122
0.391597
0.391975
0.392355
0.39274
0.393133
0.393537
0.393958
0.394401
0.394871
0.395377
0.395925
0.396524
0.397184
0.397914
0.398723
0.399619
0.400614
0.401723
0.402964
0.404302
0.405746
0.407177
0.408598
0.409986
0.411275
0.412
0.412
0.412
0.412
0.381421
0.382039
0.382649
0.383235
0.383797
0.384335
0.384852
0.38535
0.38583
0.386293
0.386741
0.387176
0.387599
0.388012
0.388416
0.388813
0.389202
0.389587
0.389966
0.390342
0.390715
0.391087
0.391459
0.391834
0.392214
0.392601
0.393
0.393415
0.393852
0.394316
0.394814
0.395355
0.395947
0.396598
0.397319
0.398119
0.399006
0.399992
0.401091
0.402322
0.403654
0.405091
0.406525
0.40796
0.409377
0.41073
0.411891
0.412
0.412
0.412
0.381139
0.381722
0.38231
0.382879
0.383428
0.383956
0.384464
0.384954
0.385426
0.385881
0.386322
0.386751
0.387167
0.387574
0.387972
0.388362
0.388746
0.389125
0.389499
0.389869
0.390237
0.390603
0.39097
0.39134
0.391714
0.392096
0.392489
0.392898
0.393329
0.393786
0.394278
0.394811
0.395394
0.396037
0.396749
0.397539
0.398416
0.399392
0.40048
0.401701
0.403024
0.404451
0.405886
0.407328
0.408766
0.410162
0.411439
0.412
0.412
0.412
0.380883
0.381433
0.381997
0.38255
0.383087
0.383604
0.384103
0.384584
0.385048
0.385496
0.38593
0.386352
0.386762
0.387162
0.387554
0.387938
0.388316
0.388689
0.389057
0.389422
0.389784
0.390145
0.390507
0.390871
0.391239
0.391616
0.392003
0.392407
0.39283
0.393281
0.393765
0.394291
0.394866
0.3955
0.396202
0.396982
0.397849
0.398814
0.399891
0.401101
0.402413
0.403828
0.40526
0.406707
0.408157
0.409584
0.410929
0.412
0.412
0.412
0.380652
0.381168
0.38171
0.382247
0.382771
0.383278
0.383767
0.38424
0.384696
0.385136
0.385563
0.385978
0.386381
0.386775
0.387161
0.387539
0.387911
0.388278
0.38864
0.389
0.389356
0.389712
0.390068
0.390427
0.39079
0.39116
0.391542
0.391939
0.392357
0.3928
0.393277
0.393795
0.394362
0.394986
0.395679
0.396449
0.397305
0.398259
0.399324
0.400521
0.401821
0.403224
0.40465
0.406097
0.407555
0.409002
0.410392
0.411581
0.412
0.412
0.380444
0.380928
0.381447
0.381968
0.382479
0.382976
0.383456
0.38392
0.384368
0.384801
0.385221
0.385628
0.386025
0.386413
0.386792
0.387164
0.38753
0.387891
0.388248
0.388602
0.388953
0.389303
0.389654
0.390006
0.390364
0.390729
0.391105
0.391496
0.391906
0.392343
0.392813
0.393323
0.393881
0.394496
0.395179
0.395938
0.396784
0.397726
0.398778
0.399961
0.401249
0.402637
0.404056
0.4055
0.406962
0.408422
0.409844
0.411112
0.412
0.412
0.380258
0.38071
0.381207
0.381712
0.382211
0.382697
0.383168
0.383623
0.384064
0.384489
0.384902
0.385302
0.385693
0.386074
0.386447
0.386813
0.387173
0.387528
0.387879
0.388227
0.388572
0.388917
0.389262
0.389609
0.389961
0.39032
0.39069
0.391075
0.391479
0.391909
0.392371
0.392873
0.393422
0.394029
0.394701
0.39545
0.396284
0.397214
0.398253
0.399422
0.400696
0.402069
0.403479
0.404918
0.40638
0.407848
0.409292
0.410613
0.411829
0.412
0.380094
0.380515
0.38099
0.381479
0.381965
0.382441
0.382902
0.383349
0.383782
0.3842
0.384605
0.384999
0.385382
0.385757
0.386124
0.386484
0.386838
0.387187
0.387532
0.387875
0.388215
0.388554
0.388893
0.389235
0.389581
0.389934
0.390298
0.390677
0.391075
0.391498
0.391952
0.392446
0.392986
0.393583
0.394246
0.394983
0.395806
0.396723
0.39775
0.398903
0.400162
0.40152
0.402919
0.40435
0.40581
0.407282
0.40874
0.410101
0.411413
0.412
0.379948
0.38034
0.380793
0.381267
0.38174
0.382206
0.382658
0.383097
0.383521
0.383932
0.38433
0.384717
0.385094
0.385462
0.385822
0.386176
0.386524
0.386868
0.387207
0.387544
0.387878
0.388212
0.388546
0.388882
0.389222
0.38957
0.389928
0.3903
0.390691
0.391107
0.391554
0.39204
0.392572
0.393159
0.393811
0.394538
0.395349
0.396254
0.397266
0.398405
0.399648
0.40099
0.402377
0.403799
0.405253
0.406726
0.408193
0.409582
0.410954
0.412
0.379822
0.380184
0.380616
0.381074
0.381536
0.381991
0.382434
0.382864
0.383281
0.383684
0.384075
0.384456
0.384826
0.385187
0.385542
0.385889
0.386232
0.386569
0.386903
0.387234
0.387563
0.387891
0.388219
0.38855
0.388884
0.389226
0.389578
0.389944
0.390329
0.390738
0.391178
0.391655
0.392178
0.392756
0.393398
0.394113
0.394912
0.395805
0.396803
0.397926
0.399154
0.400479
0.401852
0.403264
0.404711
0.406181
0.407653
0.409062
0.410475
0.411721
0.379712
0.380046
0.380458
0.380901
0.381351
0.381795
0.38223
0.382652
0.38306
0.383456
0.38384
0.384214
0.384577
0.384933
0.385281
0.385622
0.385959
0.386291
0.386619
0.386944
0.387267
0.38759
0.387912
0.388237
0.388567
0.388903
0.389249
0.389608
0.389987
0.390389
0.390821
0.39129
0.391805
0.392373
0.393004
0.393709
0.394496
0.395375
0.39636
0.397467
0.398678
0.399986
0.401345
0.402746
0.404184
0.405649
0.407122
0.408545
0.409986
0.411317
0.379619
0.379925
0.380318
0.380746
0.381184
0.381618
0.382044
0.382457
0.382858
0.383247
0.383624
0.383991
0.384348
0.384697
0.385039
0.385374
0.385705
0.386031
0.386353
0.386673
0.386991
0.387308
0.387625
0.387944
0.388268
0.388598
0.388938
0.389292
0.389664
0.390059
0.390484
0.390945
0.391451
0.39201
0.392631
0.393324
0.394098
0.394965
0.395936
0.397027
0.398221
0.399511
0.400856
0.402244
0.403672
0.40513
0.406601
0.408034
0.409494
0.410881
0.379541
0.379821
0.380194
0.380608
0.381034
0.381458
0.381875
0.38228
0.382674
0.383055
0.383425
0.383785
0.384136
0.384479
0.384815
0.385144
0.385469
0.385789
0.386106
0.38642
0.386733
0.387044
0.387356
0.38767
0.387988
0.388312
0.388647
0.388994
0.389359
0.389748
0.390165
0.390619
0.391116
0.391665
0.392276
0.392958
0.39372
0.394574
0.39553
0.396605
0.397783
0.399055
0.400384
0.401758
0.403175
0.404625
0.406091
0.407531
0.409003
0.410429
0.379477
0.379732
0.380086
0.380485
0.3809
0.381315
0.381723
0.38212
0.382506
0.38288
0.383244
0.383597
0.383941
0.384278
0.384608
0.384932
0.38525
0.385565
0.385876
0.386185
0.386492
0.386798
0.387104
0.387413
0.387725
0.388044
0.388373
0.388714
0.389073
0.389454
0.389865
0.39031
0.390799
0.391338
0.391939
0.39261
0.39336
0.394201
0.395143
0.396201
0.397362
0.398616
0.399929
0.40129
0.402694
0.404134
0.405594
0.407036
0.408516
0.409969
0.379426
0.379657
0.379993
0.380378
0.380782
0.381187
0.381586
0.381976
0.382354
0.382722
0.383078
0.383425
0.383763
0.384093
0.384417
0.384735
0.385048
0.385357
0.385663
0.385966
0.386268
0.386568
0.386869
0.387173
0.38748
0.387793
0.388116
0.388451
0.388804
0.389178
0.389581
0.390019
0.390499
0.39103
0.39162
0.392279
0.393018
0.393846
0.394773
0.395815
0.396959
0.398195
0.399492
0.400837
0.402228
0.403657
0.40511
0.406551
0.408035
0.409507
0.379388
0.379595
0.379914
0.380285
0.380678
0.381074
0.381465
0.381846
0.382217
0.382578
0.382928
0.383268
0.3836
0.383924
0.384242
0.384554
0.384862
0.385165
0.385466
0.385764
0.38606
0.386355
0.386651
0.386949
0.38725
0.387558
0.387875
0.388204
0.388551
0.388919
0.389315
0.389745
0.390216
0.390737
0.391318
0.391966
0.392693
0.393507
0.394421
0.395446
0.396573
0.397791
0.399071
0.400401
0.401778
0.403195
0.404639
0.406077
0.407562
0.409046
0.379361
0.379545
0.379847
0.380206
0.380588
0.380974
0.381357
0.381731
0.382095
0.382448
0.382792
0.383126
0.383451
0.38377
0.384082
0.384388
0.38469
0.384988
0.385283
0.385576
0.385867
0.386157
0.386447
0.38674
0.387036
0.387339
0.38765
0.387973
0.388314
0.388675
0.389064
0.389486
0.389949
0.390462
0.391032
0.391669
0.392384
0.393186
0.394085
0.395094
0.396203
0.397404
0.398667
0.399981
0.401344
0.402748
0.404181
0.405615
0.407097
0.408588
0.379344
0.379507
0.379793
0.380139
0.38051
0.380888
0.381262
0.381629
0.381986
0.382332
0.382669
0.382997
0.383317
0.383629
0.383935
0.384236
0.384533
0.384826
0.385115
0.385403
0.385688
0.385973
0.386259
0.386546
0.386837
0.387134
0.38744
0.387758
0.388092
0.388447
0.388828
0.389243
0.389698
0.390201
0.390762
0.391388
0.392091
0.39288
0.393765
0.394758
0.39585
0.397032
0.398278
0.399577
0.400925
0.402315
0.403737
0.405165
0.406642
0.408137
0.379338
0.37948
0.37975
0.380084
0.380445
0.380813
0.38118
0.381539
0.381889
0.382229
0.38256
0.382881
0.383195
0.383502
0.383802
0.384098
0.384389
0.384676
0.384961
0.385243
0.385523
0.385803
0.386084
0.386366
0.386652
0.386943
0.387244
0.387556
0.387884
0.388233
0.388607
0.389015
0.389462
0.389956
0.390506
0.391122
0.391814
0.392589
0.39346
0.394437
0.395512
0.396677
0.397906
0.399188
0.400521
0.401897
0.403307
0.404727
0.406198
0.407692
0.37934
0.379463
0.379718
0.38004
0.380391
0.380751
0.381109
0.381461
0.381804
0.382138
0.382462
0.382778
0.383086
0.383387
0.383682
0.383972
0.384258
0.38454
0.384819
0.385096
0.385372
0.385647
0.385922
0.386199
0.38648
0.386766
0.387061
0.387368
0.38769
0.388032
0.3884
0.3888
0.389239
0.389725
0.390266
0.390871
0.391551
0.392314
0.393171
0.394132
0.39519
0.396336
0.397548
0.398814
0.400131
0.401493
0.40289
0.404301
0.405764
0.407255
0.379351
0.379455
0.379696
0.380006
0.380347
0.380699
0.38105
0.381395
0.381731
0.382058
0.382376
0.382686
0.382988
0.383283
0.383573
0.383858
0.384139
0.384416
0.38469
0.384962
0.385233
0.385502
0.385773
0.386045
0.386321
0.386602
0.386892
0.387193
0.387509
0.387845
0.388207
0.388599
0.38903
0.389507
0.390039
0.390634
0.391302
0.392052
0.392895
0.393841
0.394882
0.396011
0.397205
0.398455
0.399756
0.401103
0.402486
0.403888
0.405341
0.406827
0.37937
0.379456
0.379682
0.379982
0.380314
0.380657
0.381
0.381338
0.381668
0.381989
0.382301
0.382605
0.382901
0.383191
0.383476
0.383755
0.384031
0.384303
0.384572
0.384839
0.385105
0.38537
0.385636
0.385903
0.386174
0.38645
0.386734
0.38703
0.387341
0.387671
0.388026
0.388411
0.388835
0.389303
0.389825
0.39041
0.391066
0.391805
0.392634
0.393564
0.394588
0.3957
0.396877
0.39811
0.399395
0.400727
0.402096
0.403487
0.40493
0.406409
0.379396
0.379465
0.379678
0.379966
0.380289
0.380625
0.380961
0.381292
0.381615
0.38193
0.382236
0.382534
0.382825
0.38311
0.383389
0.383664
0.383934
0.384201
0.384465
0.384728
0.384989
0.385249
0.38551
0.385772
0.386038
0.38631
0.386589
0.386879
0.387184
0.387508
0.387857
0.388235
0.388651
0.389111
0.389624
0.390199
0.390844
0.39157
0.392386
0.3933
0.394308
0.395402
0.396563
0.397779
0.399048
0.400364
0.40172
0.403099
0.404531
0.406001
0.379428
0.379481
0.379682
0.379959
0.380273
0.380601
0.38093
0.381254
0.381572
0.38188
0.382181
0.382473
0.382759
0.383038
0.383312
0.383582
0.383847
0.384109
0.384369
0.384627
0.384883
0.385138
0.385395
0.385652
0.385914
0.38618
0.386454
0.386739
0.387039
0.387357
0.387699
0.388071
0.388479
0.388931
0.389435
0.39
0.390634
0.391348
0.39215
0.39305
0.394041
0.395118
0.396262
0.397462
0.398714
0.400015
0.401356
0.402723
0.404143
0.405602
0.379467
0.379504
0.379692
0.37996
0.380266
0.380586
0.380908
0.381226
0.381537
0.381839
0.382134
0.382421
0.382702
0.382976
0.383245
0.383509
0.38377
0.384028
0.384282
0.384535
0.384787
0.385038
0.38529
0.385543
0.385799
0.386061
0.38633
0.38661
0.386904
0.387217
0.387553
0.387918
0.388319
0.388763
0.389258
0.389812
0.390436
0.391138
0.391927
0.392812
0.393787
0.394847
0.395974
0.397158
0.398394
0.399679
0.401005
0.402359
0.403767
0.405215
0.379511
0.379534
0.37971
0.379968
0.380266
0.380578
0.380893
0.381205
0.38151
0.381807
0.382096
0.382378
0.382653
0.382922
0.383186
0.383446
0.383702
0.383955
0.384205
0.384453
0.384701
0.384947
0.385194
0.385443
0.385695
0.385952
0.386216
0.386491
0.38678
0.387087
0.387417
0.387776
0.388169
0.388605
0.389091
0.389636
0.39025
0.39094
0.391716
0.392586
0.393546
0.394589
0.395699
0.396866
0.398086
0.399355
0.400666
0.402007
0.403402
0.404838
0.37956
0.379569
0.379734
0.379983
0.380272
0.380578
0.380886
0.381192
0.381491
0.381782
0.382066
0.382343
0.382613
0.382877
0.383136
0.383391
0.383642
0.383891
0.384136
0.38438
0.384623
0.384865
0.385108
0.385352
0.3856
0.385852
0.386112
0.386382
0.386666
0.386967
0.387291
0.387643
0.38803
0.388458
0.388935
0.389471
0.390074
0.390752
0.391516
0.392371
0.393316
0.394342
0.395436
0.396587
0.397791
0.399044
0.40034
0.401668
0.403048
0.404471
0.379613
0.379609
0.379764
0.380004
0.380286
0.380584
0.380886
0.381186
0.381479
0.381765
0.382043
0.382315
0.38258
0.382839
0.383094
0.383344
0.383591
0.383835
0.384076
0.384316
0.384554
0.384792
0.38503
0.38527
0.385513
0.385761
0.386016
0.386282
0.38656
0.386856
0.387174
0.38752
0.3879
0.38832
0.38879
0.389316
0.389908
0.390576
0.391326
0.392168
0.393097
0.394107
0.395184
0.396319
0.397507
0.398744
0.400025
0.40134
0.402706
0.404115
0.379671
0.379655
0.3798
0.380031
0.380305
0.380597
0.380892
0.381186
0.381474
0.381754
0.382027
0.382294
0.382554
0.382809
0.383059
0.383305
0.383547
0.383786
0.384023
0.384259
0.384493
0.384727
0.384961
0.385196
0.385435
0.385679
0.385929
0.38619
0.386463
0.386754
0.387067
0.387406
0.387779
0.388192
0.388653
0.389171
0.389753
0.390409
0.391147
0.391975
0.392889
0.393883
0.394944
0.396063
0.397235
0.398457
0.399722
0.401023
0.402375
0.40377
0.379732
0.379704
0.37984
0.380063
0.38033
0.380615
0.380905
0.381192
0.381474
0.38175
0.382018
0.38228
0.382535
0.382785
0.383031
0.383272
0.38351
0.383745
0.383978
0.384209
0.384439
0.384669
0.384899
0.38513
0.385365
0.385604
0.38585
0.386106
0.386375
0.386661
0.386968
0.387301
0.387667
0.388073
0.388526
0.389035
0.389607
0.390252
0.390978
0.391792
0.392691
0.39367
0.394715
0.395818
0.396974
0.39818
0.39943
0.400717
0.402055
0.403435
0.379797
0.379758
0.379885
0.3801
0.38036
0.380638
0.380922
0.381204
0.381481
0.381751
0.382015
0.382271
0.382522
0.382768
0.383009
0.383246
0.38348
0.383711
0.383939
0.384167
0.384392
0.384618
0.384844
0.385072
0.385302
0.385537
0.385779
0.38603
0.386294
0.386575
0.386876
0.387204
0.387564
0.387963
0.388408
0.388907
0.38947
0.390104
0.390818
0.391619
0.392504
0.393467
0.394497
0.395584
0.396724
0.397915
0.39915
0.400422
0.401746
0.403111
0.379865
0.379816
0.379934
0.380141
0.380394
0.380667
0.380945
0.381221
0.381493
0.381758
0.382017
0.382269
0.382515
0.382757
0.382993
0.383226
0.383456
0.383683
0.383907
0.38413
0.384352
0.384574
0.384796
0.38502
0.385246
0.385477
0.385715
0.385962
0.386221
0.386497
0.386793
0.387115
0.387468
0.38786
0.388297
0.388789
0.389342
0.389966
0.390668
0.391455
0.392326
0.393274
0.394288
0.39536
0.396485
0.39766
0.39888
0.400138
0.401447
0.402796
0.379936
0.379877
0.379986
0.380187
0.380433
0.3807
0.380972
0.381243
0.38151
0.38177
0.382024
0.382272
0.382514
0.382751
0.382983
0.383212
0.383438
0.38366
0.383881
0.3841
0.384319
0.384536
0.384755
0.384974
0.385197
0.385424
0.385657
0.3859
0.386155
0.386425
0.386716
0.387033
0.38738
0.387765
0.388195
0.388678
0.389222
0.389835
0.390526
0.3913
0.392157
0.393091
0.39409
0.395146
0.396255
0.397415
0.39862
0.399864
0.401158
0.402492
0.380009
0.379941
0.380042
0.380236
0.380476
0.380737
0.381004
0.38127
0.381532
0.381787
0.382037
0.38228
0.382517
0.38275
0.382978
0.383203
0.383425
0.383644
0.383861
0.384076
0.384291
0.384505
0.384719
0.384935
0.385154
0.385377
0.385606
0.385845
0.386095
0.386361
0.386647
0.386958
0.387299
0.387677
0.3881
0.388574
0.389109
0.389713
0.390392
0.391154
0.391997
0.392916
0.3939
0.394941
0.396036
0.39718
0.39837
0.3996
0.400879
0.402198
0.380084
0.380008
0.380102
0.380289
0.380523
0.380778
0.38104
0.381301
0.381557
0.381808
0.382053
0.382292
0.382526
0.382754
0.382979
0.383199
0.383417
0.383632
0.383846
0.384057
0.384268
0.384478
0.384689
0.384901
0.385116
0.385335
0.385561
0.385795
0.386041
0.386303
0.386584
0.386889
0.387225
0.387597
0.388012
0.388478
0.389004
0.389598
0.390266
0.391016
0.391846
0.39275
0.39372
0.394746
0.395825
0.396955
0.39813
0.399345
0.40061
0.401914
0.380162
0.380077
0.380164
0.380345
0.380573
0.380822
0.381079
0.381335
0.381587
0.381834
0.382074
0.382309
0.382538
0.382763
0.382983
0.3832
0.383414
0.383626
0.383835
0.384043
0.384251
0.384457
0.384664
0.384873
0.385084
0.3853
0.385522
0.385752
0.385994
0.386251
0.386527
0.386827
0.387157
0.387522
0.387931
0.388389
0.388906
0.38949
0.390148
0.390886
0.391702
0.392593
0.393548
0.39456
0.395624
0.396739
0.397899
0.399101
0.400351
0.401639
0.38024
0.380148
0.380229
0.380403
0.380626
0.38087
0.381122
0.381373
0.381621
0.381863
0.382099
0.38233
0.382555
0.382776
0.382992
0.383206
0.383416
0.383624
0.38383
0.384034
0.384238
0.384441
0.384645
0.38485
0.385058
0.38527
0.385487
0.385714
0.385952
0.386204
0.386476
0.386771
0.387095
0.387454
0.387856
0.388307
0.388815
0.38939
0.390037
0.390763
0.391566
0.392443
0.393384
0.394382
0.395432
0.396532
0.397678
0.398865
0.400101
0.401373
0.380321
0.380221
0.380296
0.380465
0.380682
0.380921
0.381167
0.381414
0.381657
0.381895
0.382127
0.382354
0.382575
0.382792
0.383005
0.383215
0.383422
0.383626
0.383829
0.38403
0.38423
0.38443
0.38463
0.384832
0.385036
0.385244
0.385458
0.385681
0.385915
0.386163
0.38643
0.38672
0.387039
0.387392
0.387787
0.38823
0.38873
0.389295
0.389932
0.390647
0.391438
0.392301
0.393228
0.394212
0.395247
0.396333
0.397465
0.398638
0.399859
0.401116
0.380402
0.380296
0.380365
0.380528
0.38074
0.380974
0.381216
0.381458
0.381697
0.381931
0.382159
0.382382
0.382599
0.382813
0.383022
0.383228
0.383431
0.383632
0.383831
0.384029
0.384226
0.384422
0.384619
0.384818
0.385018
0.385223
0.385434
0.385653
0.385883
0.386127
0.386389
0.386674
0.386988
0.387335
0.387723
0.388159
0.388652
0.389208
0.389834
0.390537
0.391316
0.392167
0.39308
0.39405
0.395071
0.396143
0.39726
0.398419
0.399627
0.400868
0.380484
0.380373
0.380436
0.380594
0.3808
0.38103
0.381267
0.381505
0.38174
0.381969
0.382194
0.382412
0.382626
0.382836
0.383042
0.383244
0.383444
0.383642
0.383838
0.384032
0.384226
0.384419
0.384613
0.384808
0.385005
0.385207
0.385414
0.385629
0.385855
0.386095
0.386353
0.386634
0.386942
0.387284
0.387665
0.388094
0.388579
0.389126
0.389743
0.390435
0.391201
0.392039
0.392939
0.393895
0.394903
0.39596
0.397064
0.398209
0.399403
0.400629
0.380568
0.380451
0.380508
0.380661
0.380863
0.381088
0.381321
0.381554
0.381785
0.382011
0.382231
0.382446
0.382657
0.382863
0.383065
0.383264
0.383461
0.383655
0.383848
0.384039
0.384229
0.384419
0.38461
0.384802
0.384996
0.385194
0.385398
0.38561
0.385832
0.386068
0.386322
0.386598
0.386901
0.387237
0.387612
0.388035
0.388511
0.389049
0.389657
0.390338
0.391093
0.391918
0.392805
0.393748
0.394742
0.395786
0.396875
0.398007
0.399187
0.400398
0.380652
0.380529
0.380582
0.38073
0.380927
0.381148
0.381376
0.381606
0.381832
0.382054
0.382271
0.382483
0.382689
0.382892
0.383091
0.383287
0.38348
0.383672
0.383861
0.384049
0.384236
0.384423
0.384611
0.3848
0.384991
0.385186
0.385386
0.385594
0.385813
0.386045
0.386295
0.386566
0.386864
0.387195
0.387564
0.38798
0.388449
0.388979
0.389576
0.390247
0.390991
0.391803
0.392678
0.393607
0.394588
0.395618
0.396694
0.397813
0.398978
0.400175
0.380736
0.380609
0.380657
0.380801
0.380993
0.381209
0.381434
0.381659
0.381882
0.3821
0.382313
0.382521
0.382725
0.382924
0.38312
0.383313
0.383503
0.383691
0.383877
0.384062
0.384247
0.384431
0.384615
0.384801
0.384989
0.385181
0.385378
0.385583
0.385798
0.386026
0.386272
0.386539
0.386832
0.387157
0.387521
0.38793
0.388391
0.388913
0.389501
0.390162
0.390894
0.391695
0.392557
0.393473
0.394441
0.395458
0.396521
0.397626
0.398778
0.39996
0.380821
0.38069
0.380733
0.380872
0.381061
0.381272
0.381493
0.381714
0.381933
0.382148
0.382358
0.382562
0.382762
0.382958
0.383151
0.383341
0.383528
0.383713
0.383896
0.384078
0.38426
0.384441
0.384622
0.384805
0.38499
0.385179
0.385373
0.385575
0.385786
0.386011
0.386253
0.386515
0.386804
0.387124
0.387482
0.387884
0.388338
0.388852
0.389431
0.390082
0.390803
0.391592
0.392442
0.393346
0.394301
0.395304
0.396354
0.397446
0.398585
0.399752
0.380906
0.380771
0.38081
0.380945
0.381129
0.381337
0.381554
0.381771
0.381987
0.382198
0.382404
0.382605
0.382802
0.382995
0.383185
0.383371
0.383555
0.383737
0.383918
0.384097
0.384275
0.384454
0.384632
0.384812
0.384994
0.38518
0.385371
0.38557
0.385778
0.385999
0.386237
0.386496
0.386779
0.387094
0.387446
0.387842
0.38829
0.388795
0.389366
0.390007
0.390718
0.391495
0.392333
0.393225
0.394167
0.395158
0.396194
0.397274
0.398399
0.399553
0.380991
0.380852
0.380888
0.381019
0.381199
0.381403
0.381616
0.38183
0.382041
0.382249
0.382452
0.38265
0.382844
0.383034
0.38322
0.383404
0.383585
0.383764
0.383942
0.384118
0.384294
0.384469
0.384645
0.384822
0.385001
0.385184
0.385372
0.385568
0.385773
0.385991
0.386225
0.386479
0.386759
0.387069
0.387415
0.387805
0.388245
0.388743
0.389306
0.389937
0.390637
0.391403
0.392229
0.393109
0.394039
0.395017
0.396041
0.397107
0.39822
0.39936
0.381077
0.380934
0.380967
0.381094
0.38127
0.38147
0.381679
0.381889
0.382098
0.382302
0.382501
0.382696
0.382887
0.383074
0.383257
0.383438
0.383617
0.383793
0.383968
0.384142
0.384314
0.384487
0.38466
0.384835
0.385011
0.385191
0.385376
0.385569
0.385771
0.385985
0.386215
0.386466
0.386741
0.387046
0.387387
0.387771
0.388205
0.388695
0.389249
0.389871
0.390561
0.391316
0.392131
0.392999
0.393917
0.394882
0.395894
0.396948
0.398047
0.399174
0.381162
0.381017
0.381045
0.381169
0.381341
0.381538
0.381743
0.38195
0.382155
0.382356
0.382552
0.382744
0.382932
0.383116
0.383297
0.383475
0.38365
0.383824
0.383996
0.384167
0.384337
0.384507
0.384678
0.38485
0.385023
0.385201
0.385383
0.385572
0.385771
0.385982
0.386209
0.386456
0.386727
0.387027
0.387363
0.387741
0.388168
0.388651
0.389197
0.38981
0.39049
0.391235
0.392038
0.392894
0.3938
0.394754
0.395752
0.396794
0.397881
0.398995
0.381247
0.381099
0.381125
0.381245
0.381414
0.381606
0.381808
0.382012
0.382213
0.382411
0.382605
0.382794
0.382978
0.383159
0.383337
0.383513
0.383685
0.383857
0.384026
0.384194
0.384362
0.38453
0.384698
0.384867
0.385038
0.385213
0.385392
0.385579
0.385774
0.385982
0.386206
0.386448
0.386715
0.387011
0.387342
0.387714
0.388135
0.388611
0.389149
0.389753
0.390423
0.391157
0.391949
0.392794
0.393689
0.39463
0.395617
0.396647
0.397722
0.398822
0.381331
0.381182
0.381204
0.381321
0.381486
0.381675
0.381874
0.382074
0.382273
0.382468
0.382658
0.382844
0.383026
0.383204
0.383379
0.383552
0.383722
0.383891
0.384058
0.384224
0.384389
0.384554
0.384719
0.384886
0.385054
0.385226
0.385403
0.385587
0.38578
0.385985
0.386205
0.386444
0.386706
0.386998
0.387324
0.387691
0.388105
0.388574
0.389104
0.389699
0.39036
0.391084
0.391866
0.3927
0.393583
0.394513
0.395487
0.396505
0.397568
0.398656
0.381415
0.381264
0.381284
0.381397
0.381559
0.381745
0.38194
0.382138
0.382333
0.382525
0.382712
0.382895
0.383075
0.38325
0.383423
0.383593
0.383761
0.383927
0.384091
0.384254
0.384417
0.38458
0.384743
0.384907
0.385073
0.385242
0.385417
0.385598
0.385788
0.385989
0.386206
0.386442
0.3867
0.386987
0.387309
0.38767
0.388078
0.388541
0.389063
0.38965
0.390301
0.391015
0.391787
0.39261
0.393481
0.3944
0.395363
0.396369
0.39742
0.398496
0.381499
0.381346
0.381363
0.381474
0.381633
0.381815
0.382007
0.382202
0.382394
0.382583
0.382767
0.382948
0.383124
0.383297
0.383467
0.383635
0.3838
0.383964
0.384126
0.384287
0.384447
0.384607
0.384768
0.384929
0.385093
0.38526
0.385432