/*--------------------------------*- C++ -*----------------------------------*\
| =========                 |                                                 |
| \\      /  F ield         | OpenFOAM: The Open Source CFD Toolbox           |
|  \\    /   O peration     | Version:  v1906                                 |
|   \\  /    A nd           | Web:      www.OpenFOAM.com                      |
|    \\/     M anipulation  |                                                 |
\*---------------------------------------------------------------------------*/
FoamFile
{
    version     2.0;
    format      ascii;
    class       volScalarField;
    location    "10368000";
    object      Tvisu;
}
// * * * * * * * * * * * * * * * * * * * * * * * * * * * * * * * * * * * * * //

dimensions      [0 0 0 1 0 0 0];


internalField   nonuniform List<scalar> 
4250
(
4.17582
4.17366
4.17102
4.16822
4.16538
4.16255
4.15977
4.15708
4.1545
4.15204
4.14973
4.14758
4.1456
4.14379
4.14215
4.14068
4.13937
4.13821
4.13718
4.13626
4.13545
4.13471
4.13403
4.13338
4.13275
4.13209
4.13137
4.13056
4.1296
4.12844
4.12703
4.12528
4.12313
4.12047
4.11724
4.11335
4.10871
4.10328
4.09701
4.08991
4.08199
4.07331
4.06396
4.05405
4.04375
4.03326
4.02286
4.01304
4.00458
3.99896
4.17596
4.17381
4.17118
4.16839
4.16555
4.16272
4.15994
4.15725
4.15467
4.15221
4.1499
4.14775
4.14577
4.14396
4.14232
4.14085
4.13953
4.13837
4.13734
4.13642
4.1356
4.13487
4.13419
4.13354
4.1329
4.13225
4.13153
4.13072
4.12977
4.12862
4.12722
4.12548
4.12333
4.1207
4.11748
4.11361
4.109
4.10359
4.09734
4.09026
4.08237
4.07373
4.0644
4.05451
4.04423
4.03375
4.02336
4.01351
4.00501
3.99927
4.17622
4.17406
4.17144
4.16865
4.16581
4.16299
4.16022
4.15754
4.15495
4.1525
4.15019
4.14804
4.14606
4.14425
4.14261
4.14114
4.13983
4.13866
4.13763
4.13671
4.1359
4.13516
4.13448
4.13384
4.1332
4.13254
4.13183
4.13103
4.13008
4.12894
4.12754
4.12582
4.12369
4.12107
4.11787
4.11402
4.10944
4.10406
4.09785
4.0908
4.08295
4.07434
4.06505
4.05519
4.04494
4.03448
4.02411
4.01425
4.00569
3.99982
4.17657
4.1744
4.17178
4.169
4.16617
4.16336
4.1606
4.15792
4.15535
4.1529
4.1506
4.14845
4.14647
4.14466
4.14303
4.14156
4.14024
4.13908
4.13805
4.13713
4.13632
4.13558
4.1349
4.13426
4.13363
4.13297
4.13226
4.13146
4.13053
4.12939
4.12801
4.12629
4.12418
4.12158
4.11841
4.11459
4.11004
4.10469
4.09852
4.09151
4.0837
4.07514
4.06589
4.05609
4.04587
4.03545
4.02509
4.01523
4.00662
4.0006
4.17701
4.17482
4.17221
4.16944
4.16662
4.16382
4.16107
4.1584
4.15584
4.1534
4.1511
4.14896
4.14699
4.14519
4.14355
4.14209
4.14078
4.13961
4.13858
4.13767
4.13686
4.13612
4.13545
4.1348
4.13417
4.13352
4.13282
4.13203
4.13109
4.12997
4.1286
4.1269
4.1248
4.12223
4.11908
4.11529
4.11078
4.10547
4.09935
4.09239
4.08462
4.07611
4.06692
4.05717
4.04701
4.03664
4.02631
4.01645
4.00778
4.0016
4.17754
4.17533
4.17272
4.16996
4.16716
4.16437
4.16163
4.15897
4.15642
4.15399
4.15171
4.14958
4.14761
4.14581
4.14419
4.14272
4.14142
4.14026
4.13923
4.13832
4.13751
4.13678
4.1361
4.13547
4.13484
4.13419
4.13349
4.13271
4.13178
4.13067
4.12931
4.12763
4.12555
4.123
4.11989
4.11613
4.11165
4.10639
4.10031
4.09341
4.0857
4.07725
4.06813
4.05844
4.04834
4.03802
4.02773
4.01788
4.00916
4.00281
4.17816
4.17591
4.1733
4.17055
4.16777
4.165
4.16228
4.15963
4.15709
4.15468
4.1524
4.15028
4.14833
4.14654
4.14492
4.14346
4.14216
4.14101
4.13998
4.13908
4.13827
4.13754
4.13687
4.13623
4.13561
4.13497
4.13428
4.1335
4.13258
4.13148
4.13013
4.12847
4.12642
4.12389
4.12081
4.11709
4.11265
4.10744
4.10142
4.09458
4.08693
4.07855
4.06949
4.05988
4.04985
4.0396
4.02936
4.01952
4.01074
4.00423
4.17884
4.17656
4.17395
4.17122
4.16845
4.1657
4.163
4.16037
4.15785
4.15545
4.15319
4.15108
4.14914
4.14736
4.14575
4.1443
4.143
4.14185
4.14084
4.13993
4.13913
4.1384
4.13774
4.13711
4.13649
4.13585
4.13516
4.13439
4.13349
4.1324
4.13106
4.12942
4.12739
4.12489
4.12184
4.11816
4.11377
4.10862
4.10266
4.09588
4.0883
4.07999
4.07101
4.06148
4.05153
4.04135
4.03117
4.02134
4.01252
4.00583
4.17959
4.17727
4.17467
4.17195
4.1692
4.16647
4.16379
4.16119
4.15868
4.1563
4.15405
4.15196
4.15003
4.14826
4.14666
4.14522
4.14393
4.14279
4.14178
4.14088
4.14008
4.13936
4.1387
4.13807
4.13746
4.13683
4.13615
4.13538
4.13449
4.13341
4.13209
4.13047
4.12846
4.12599
4.12298
4.11934
4.11501
4.10991
4.10401
4.0973
4.0898
4.08157
4.07267
4.06322
4.05337
4.04327
4.03315
4.02335
4.01448
4.00761
4.18041
4.17805
4.17545
4.17275
4.17002
4.16731
4.16465
4.16207
4.15959
4.15722
4.155
4.15292
4.151
4.14925
4.14766
4.14623
4.14495
4.14381
4.14281
4.14192
4.14112
4.14041
4.13975
4.13913
4.13852
4.13789
4.13722
4.13646
4.13558
4.13452
4.13322
4.13161
4.12963
4.1272
4.12422
4.12063
4.11634
4.1113
4.10547
4.09884
4.09142
4.08327
4.07446
4.06511
4.05535
4.04534
4.03529
4.02552
4.01661
4.00956
4.18128
4.17888
4.17628
4.1736
4.1709
4.16821
4.16558
4.16302
4.16056
4.15822
4.15601
4.15395
4.15205
4.15031
4.14873
4.14731
4.14604
4.14492
4.14392
4.14303
4.14225
4.14153
4.14088
4.14027
4.13966
4.13904
4.13838
4.13763
4.13676
4.13571
4.13443
4.13284
4.13089
4.12849
4.12555
4.122
4.11777
4.1128
4.10704
4.10049
4.09315
4.08509
4.07638
4.06712
4.05746
4.04755
4.03758
4.02785
4.0189
4.01168
4.1822
4.17976
4.17717
4.17451
4.17183
4.16917
4.16656
4.16403
4.16159
4.15927
4.15709
4.15505
4.15316
4.15144
4.14987
4.14847
4.14721
4.14609
4.1451
4.14423
4.14344
4.14274
4.14209
4.14148
4.14088
4.14027
4.13962
4.13888
4.13802
4.13698
4.13572
4.13416
4.13223
4.12986
4.12697
4.12347
4.1193
4.11439
4.1087
4.10223
4.09499
4.08703
4.07841
4.06926
4.0597
4.04989
4.04
4.03032
4.02134
4.01394
4.18317
4.18069
4.1781
4.17546
4.17281
4.17018
4.1676
4.16509
4.16268
4.16039
4.15822
4.1562
4.15434
4.15263
4.15108
4.14969
4.14844
4.14734
4.14636
4.14549
4.14471
4.14401
4.14337
4.14277
4.14218
4.14157
4.14093
4.1402
4.13935
4.13833
4.13708
4.13555
4.13365
4.13131
4.12846
4.12501
4.1209
4.11606
4.11046
4.10407
4.09692
4.08906
4.08055
4.07151
4.06205
4.05235
4.04255
4.03292
4.02391
4.01635
4.18418
4.18166
4.17908
4.17646
4.17383
4.17123
4.16868
4.16621
4.16382
4.16156
4.15942
4.15742
4.15557
4.15388
4.15235
4.15097
4.14974
4.14865
4.14767
4.14681
4.14605
4.14535
4.14472
4.14412
4.14354
4.14294
4.1423
4.14158
4.14075
4.13974
4.13852
4.137
4.13514
4.13284
4.13003
4.12663
4.12258
4.11781
4.11229
4.10599
4.09894
4.09118
4.08279
4.07386
4.06452
4.05491
4.04522
4.03565
4.02662
4.01888
4.18523
4.18268
4.1801
4.1775
4.1749
4.17233
4.16981
4.16737
4.16502
4.16277
4.16066
4.15869
4.15686
4.15519
4.15368
4.15231
4.1511
4.15001
4.14905
4.1482
4.14744
4.14676
4.14613
4.14554
4.14496
4.14437
4.14374
4.14303
4.14221
4.14122
4.14001
4.13852
4.13669
4.13443
4.13166
4.12832
4.12433
4.11964
4.1142
4.10799
4.10104
4.0934
4.08512
4.0763
4.06708
4.05759
4.048
4.03849
4.02944
4.02155
4.18631
4.18372
4.18115
4.17857
4.17601
4.17347
4.17099
4.16857
4.16625
4.16404
4.16195
4.16
4.1582
4.15655
4.15505
4.15371
4.1525
4.15143
4.15048
4.14964
4.14889
4.14821
4.14759
4.14701
4.14644
4.14586
4.14523
4.14454
4.14373
4.14275
4.14157
4.1401
4.1383
4.13607
4.13336
4.13007
4.12615
4.12153
4.11617
4.11007
4.10322
4.09568
4.08752
4.07883
4.06973
4.06036
4.05087
4.04143
4.03237
4.02432
4.18743
4.1848
4.18224
4.17968
4.17715
4.17465
4.1722
4.16982
4.16753
4.16534
4.16328
4.16136
4.15958
4.15795
4.15648
4.15514
4.15395
4.1529
4.15196
4.15113
4.15038
4.14972
4.1491
4.14853
4.14797
4.14739
4.14678
4.14609
4.1453
4.14434
4.14317
4.14174
4.13996
4.13778
4.13511
4.13188
4.12802
4.12348
4.11821
4.1122
4.10547
4.09804
4.09001
4.08144
4.07247
4.06322
4.05383
4.04446
4.0354
4.0272
4.18856
4.18591
4.18335
4.18082
4.17832
4.17586
4.17344
4.17109
4.16884
4.16669
4.16466
4.16276
4.16101
4.1594
4.15794
4.15663
4.15545
4.15441
4.15348
4.15266
4.15193
4.15127
4.15066
4.1501
4.14954
4.14898
4.14837
4.1477
4.14691
4.14598
4.14483
4.14342
4.14168
4.13953
4.13691
4.13374
4.12995
4.12548
4.12031
4.1144
4.10777
4.10047
4.09255
4.08412
4.07528
4.06616
4.05688
4.04758
4.03852
4.03018
4.18972
4.18704
4.18449
4.18199
4.17952
4.17709
4.17471
4.1724
4.17018
4.16806
4.16606
4.16419
4.16246
4.16088
4.15944
4.15815
4.15699
4.15596
4.15504
4.15423
4.15351
4.15286
4.15226
4.1517
4.15116
4.1506
4.15001
4.14935
4.14858
4.14765
4.14653
4.14514
4.14343
4.14133
4.13876
4.13564
4.13192
4.12754
4.12245
4.11664
4.11013
4.10295
4.09516
4.08687
4.07816
4.06917
4.06
4.05078
4.04172
4.03325
4.1909
4.18819
4.18565
4.18318
4.18075
4.17836
4.17602
4.17374
4.17155
4.16947
4.1675
4.16566
4.16395
4.16239
4.16098
4.1597
4.15856
4.15754
4.15664
4.15584
4.15513
4.15449
4.1539
4.15335
4.15281
4.15227
4.15168
4.15103
4.15028
4.14937
4.14827
4.14691
4.14523
4.14317
4.14064
4.13759
4.13394
4.12963
4.12464
4.11894
4.11254
4.10548
4.09783
4.08967
4.0811
4.07224
4.06319
4.05405
4.045
4.0364
4.1921
4.18936
4.18684
4.1844
4.182
4.17964
4.17734
4.1751
4.17295
4.1709
4.16896
4.16715
4.16547
4.16394
4.16254
4.16129
4.16016
4.15916
4.15827
4.15749
4.15678
4.15615
4.15557
4.15503
4.1545
4.15396
4.15339
4.15275
4.15201
4.15112
4.15004
4.14871
4.14707
4.14504
4.14257
4.13957
4.13599
4.13177
4.12687
4.12127
4.11499
4.10806
4.10054
4.09252
4.08409
4.07537
4.06645
4.05739
4.04835
4.03963
4.19331
4.19055
4.18804
4.18563
4.18327
4.18095
4.17869
4.17649
4.17437
4.17235
4.17045
4.16867
4.16702
4.16551
4.16413
4.1629
4.16179
4.16081
4.15993
4.15916
4.15847
4.15784
4.15727
4.15674
4.15622
4.15569
4.15513
4.1545
4.15377
4.1529
4.15184
4.15054
4.14893
4.14695
4.14452
4.14159
4.13808
4.13394
4.12913
4.12364
4.11748
4.11067
4.10329
4.09541
4.08713
4.07855
4.06976
4.06079
4.05177
4.04293
4.19453
4.19175
4.18926
4.18687
4.18455
4.18227
4.18005
4.17789
4.17581
4.17383
4.17196
4.17021
4.16859
4.1671
4.16575
4.16453
4.16344
4.16248
4.16162
4.16085
4.16017
4.15956
4.159
4.15848
4.15796
4.15745
4.15689
4.15628
4.15556
4.15471
4.15367
4.1524
4.15082
4.14888
4.1465
4.14363
4.14019
4.13614
4.13143
4.12604
4.12
4.11332
4.10608
4.09834
4.09021
4.08178
4.07311
4.06425
4.05525
4.04629
4.19575
4.19296
4.19048
4.18813
4.18585
4.18361
4.18143
4.17931
4.17727
4.17532
4.17348
4.17176
4.17017
4.16871
4.16738
4.16619
4.16512
4.16417
4.16332
4.16257
4.1619
4.1613
4.16075
4.16023
4.15973
4.15922
4.15868
4.15808
4.15738
4.15654
4.15553
4.15428
4.15273
4.15083
4.14851
4.1457
4.14233
4.13836
4.13375
4.12847
4.12255
4.116
4.1089
4.10131
4.09333
4.08504
4.07651
4.06775
4.05878
4.0497
4.19699
4.19419
4.19172
4.1894
4.18716
4.18496
4.18282
4.18074
4.17874
4.17683
4.17502
4.17334
4.17177
4.17034
4.16904
4.16786
4.16681
4.16587
4.16504
4.16431
4.16365
4.16306
4.16252
4.16201
4.16152
4.16102
4.16049
4.1599
4.15921
4.15839
4.1574
4.15618
4.15467
4.15281
4.15054
4.14779
4.14449
4.14061
4.13609
4.13093
4.12512
4.11871
4.11174
4.1043
4.09647
4.08833
4.07994
4.07129
4.06235
4.05317
4.19822
4.19541
4.19297
4.19068
4.18848
4.18633
4.18422
4.18218
4.18022
4.17835
4.17658
4.17492
4.17339
4.17198
4.1707
4.16955
4.16852
4.1676
4.16678
4.16606
4.16541
4.16483
4.1643
4.1638
4.16332
4.16283
4.16231
4.16173
4.16106
4.16026
4.15929
4.1581
4.15662
4.1548
4.15258
4.14989
4.14667
4.14287
4.13845
4.1334
4.12771
4.12143
4.11461
4.10732
4.09964
4.09165
4.0834
4.07487
4.06597
4.05669
4.19946
4.19664
4.19422
4.19197
4.18981
4.18769
4.18563
4.18363
4.18171
4.17987
4.17814
4.17652
4.17501
4.17363
4.17238
4.17125
4.17023
4.16933
4.16853
4.16782
4.16719
4.16662
4.1661
4.16561
4.16513
4.16465
4.16414
4.16358
4.16292
4.16214
4.16119
4.16003
4.15859
4.15681
4.15464
4.15201
4.14886
4.14515
4.14082
4.13588
4.13032
4.12418
4.1175
4.11036
4.10283
4.095
4.08689
4.07847
4.06962
4.06026
4.2007
4.19788
4.19548
4.19326
4.19114
4.18907
4.18705
4.18509
4.18321
4.18141
4.17971
4.17812
4.17665
4.17529
4.17406
4.17295
4.17196
4.17108
4.17029
4.16959
4.16897
4.16841
4.1679
4.16742
4.16696
4.16649
4.16599
4.16544
4.1648
4.16404
4.16311
4.16197
4.16056
4.15883
4.15671
4.15414
4.15106
4.14743
4.14321
4.13838
4.13294
4.12693
4.12039
4.1134
4.10603
4.09836
4.0904
4.0821
4.07331
4.06386
4.20194
4.19911
4.19673
4.19456
4.19247
4.19045
4.18847
4.18655
4.18471
4.18295
4.18128
4.17973
4.17828
4.17696
4.17576
4.17467
4.1737
4.17283
4.17206
4.17137
4.17077
4.17022
4.16972
4.16925
4.16879
4.16833
4.16785
4.1673
4.16668
4.16593
4.16503
4.16392
4.16254
4.16085
4.15878
4.15627
4.15327
4.14973
4.1456
4.14088
4.13557
4.12969
4.1233
4.11646
4.10925
4.10173
4.09392
4.08575
4.07701
4.0675
4.20317
4.20035
4.19799
4.19585
4.19381
4.19183
4.18989
4.18802
4.18621
4.18449
4.18286
4.18134
4.17993
4.17863
4.17745
4.17639
4.17543
4.17458
4.17383
4.17316
4.17256
4.17203
4.17154
4.17108
4.17063
4.17018
4.16971
4.16918
4.16857
4.16784
4.16696
4.16587
4.16453
4.16288
4.16086
4.15842
4.15549
4.15203
4.148
4.14339
4.1382
4.13246
4.12621
4.11952
4.11247
4.10511
4.09745
4.08941
4.08074
4.07117
4.2044
4.20158
4.19925
4.19715
4.19515
4.19321
4.19132
4.18948
4.18772
4.18603
4.18444
4.18295
4.18157
4.1803
4.17915
4.17811
4.17717
4.17634
4.1756
4.17495
4.17436
4.17384
4.17336
4.17291
4.17247
4.17203
4.17157
4.17105
4.17046
4.16975
4.16889
4.16783
4.16652
4.16491
4.16294
4.16056
4.1577
4.15433
4.1504
4.1459
4.14083
4.13522
4.12912
4.12259
4.11569
4.10849
4.10098
4.09308
4.08449
4.07486
4.20562
4.2028
4.20051
4.19844
4.19648
4.19458
4.19274
4.19095
4.18922
4.18758
4.18602
4.18456
4.18321
4.18197
4.18085
4.17983
4.17891
4.1781
4.17738
4.17674
4.17616
4.17565
4.17518
4.17474
4.17432
4.17389
4.17343
4.17293
4.17235
4.17166
4.17082
4.16978
4.16851
4.16694
4.16503
4.1627
4.15992
4.15662
4.15279
4.1484
4.14346
4.13799
4.13203
4.12565
4.11892
4.11187
4.10452
4.09675
4.08825
4.07857
4.20683
4.20403
4.20176
4.19973
4.19781
4.19596
4.19416
4.19241
4.19073
4.18912
4.1876
4.18618
4.18486
4.18364
4.18254
4.18155
4.18065
4.17986
4.17915
4.17852
4.17796
4.17746
4.177
4.17657
4.17616
4.17574
4.17529
4.1748
4.17424
4.17356
4.17274
4.17174
4.1705
4.16897
4.16711
4.16484
4.16213
4.15892
4.15519
4.15091
4.14609
4.14075
4.13494
4.12871
4.12213
4.11525
4.10806
4.10043
4.09201
4.08229
4.20804
4.20524
4.20301
4.20102
4.19914
4.19733
4.19557
4.19387
4.19222
4.19065
4.18917
4.18778
4.18649
4.18531
4.18423
4.18326
4.18239
4.18161
4.18092
4.18031
4.17976
4.17927
4.17882
4.1784
4.178
4.17759
4.17715
4.17667
4.17612
4.17547
4.17467
4.17369
4.17249
4.171
4.16918
4.16698
4.16433
4.16121
4.15757
4.1534
4.14871
4.1435
4.13784
4.13176
4.12534
4.11862
4.11159
4.1041
4.09578
4.08603
4.20923
4.20645
4.20425
4.2023
4.20047
4.1987
4.19698
4.19532
4.19372
4.19219
4.19074
4.18938
4.18812
4.18697
4.18592
4.18497
4.18412
4.18336
4.18268
4.18209
4.18155
4.18107
4.18063
4.18022
4.17983
4.17943
4.17901
4.17854
4.178
4.17736
4.17659
4.17564
4.17446
4.17302
4.17125
4.1691
4.16653
4.16349
4.15995
4.15589
4.15132
4.14625
4.14073
4.1348
4.12854
4.12198
4.11511
4.10777
4.09955
4.08978
4.21042
4.20765
4.20548
4.20357
4.20178
4.20006
4.19839
4.19676
4.1952
4.19371
4.1923
4.19098
4.18975
4.18862
4.1876
4.18667
4.18584
4.1851
4.18444
4.18386
4.18334
4.18287
4.18244
4.18204
4.18165
4.18126
4.18085
4.1804
4.17988
4.17926
4.1785
4.17758
4.17644
4.17503
4.17331
4.17122
4.16872
4.16577
4.16232
4.15837
4.15392
4.14898
4.1436
4.13783
4.13173
4.12533
4.11862
4.11143
4.10331
4.09353
4.21159
4.20884
4.2067
4.20484
4.20309
4.20141
4.19978
4.1982
4.19668
4.19523
4.19385
4.19256
4.19137
4.19027
4.18927
4.18837
4.18756
4.18683
4.18619
4.18562
4.18511
4.18466
4.18424
4.18385
4.18347
4.18309
4.18269
4.18225
4.18174
4.18114
4.18041
4.17951
4.1784
4.17703
4.17536
4.17333
4.1709
4.16803
4.16468
4.16083
4.1565
4.1517
4.14646
4.14084
4.1349
4.12867
4.12211
4.11507
4.10707
4.09729
4.21275
4.21002
4.20792
4.20609
4.20439
4.20276
4.20117
4.19963
4.19815
4.19673
4.19539
4.19414
4.19298
4.19191
4.19093
4.19005
4.18926
4.18856
4.18793
4.18738
4.18688
4.18644
4.18603
4.18565
4.18528
4.18491
4.18452
4.18409
4.1836
4.18301
4.1823
4.18143
4.18035
4.17902
4.1774
4.17543
4.17307
4.17027
4.16702
4.16328
4.15907
4.1544
4.14931
4.14384
4.13805
4.13198
4.12559
4.1187
4.11082
4.10104
4.2139
4.2112
4.20913
4.20734
4.20568
4.20409
4.20254
4.20105
4.19961
4.19823
4.19693
4.19571
4.19457
4.19353
4.19258
4.19173
4.19096
4.19027
4.18966
4.18912
4.18864
4.1882
4.18781
4.18744
4.18708
4.18672
4.18634
4.18592
4.18544
4.18487
4.18418
4.18334
4.18229
4.181
4.17943
4.17751
4.17522
4.17251
4.16935
4.16572
4.16162
4.15708
4.15213
4.14681
4.14119
4.13527
4.12905
4.12232
4.11455
4.10479
4.21504
4.21235
4.21032
4.20858
4.20696
4.20541
4.20391
4.20246
4.20105
4.19972
4.19845
4.19726
4.19616
4.19514
4.19422
4.19339
4.19264
4.19197
4.19138
4.19085
4.19038
4.18996
4.18957
4.18921
4.18887
4.18852
4.18815
4.18774
4.18728
4.18672
4.18605
4.18523
4.18422
4.18297
4.18144
4.17958
4.17736
4.17472
4.17165
4.16813
4.16416
4.15974
4.15493
4.14977
4.14429
4.13854
4.13248
4.12591
4.11827
4.10853
4.21616
4.2135
4.21151
4.20981
4.20823
4.20673
4.20527
4.20385
4.20249
4.20119
4.19996
4.1988
4.19773
4.19675
4.19585
4.19504
4.19431
4.19366
4.19308
4.19257
4.19211
4.1917
4.19133
4.19098
4.19064
4.1903
4.18994
4.18955
4.18909
4.18856
4.18791
4.18711
4.18613
4.18492
4.18343
4.18164
4.17948
4.17692
4.17395
4.17053
4.16667
4.16239
4.15771
4.1527
4.14738
4.14179
4.13589
4.12947
4.12197
4.11226
4.21726
4.21464
4.21268
4.21102
4.20949
4.20803
4.20661
4.20524
4.20391
4.20265
4.20145
4.20033
4.19929
4.19833
4.19746
4.19667
4.19597
4.19533
4.19477
4.19428
4.19383
4.19343
4.19307
4.19273
4.1924
4.19207
4.19172
4.19134
4.1909
4.19038
4.18975
4.18898
4.18802
4.18685
4.18541
4.18367
4.18158
4.1791
4.17622
4.1729
4.16916
4.16501
4.16047
4.1556
4.15044
4.14501
4.13927
4.13302
4.12565
4.11599
4.21835
4.21576
4.21384
4.21223
4.21074
4.20932
4.20794
4.20661
4.20532
4.2041
4.20294
4.20185
4.20084
4.19991
4.19906
4.1983
4.19761
4.19699
4.19645
4.19597
4.19553
4.19515
4.19479
4.19446
4.19414
4.19382
4.19348
4.19311
4.19269
4.19218
4.19157
4.19083
4.1899
4.18877
4.18738
4.18569
4.18366
4.18127
4.17847
4.17526
4.17163
4.1676
4.1632
4.15848
4.15347
4.1482
4.14262
4.13653
4.12931
4.11969
4.21943
4.21686
4.21499
4.21342
4.21197
4.21059
4.20926
4.20796
4.20672
4.20553
4.2044
4.20335
4.20237
4.20147
4.20064
4.1999
4.19923
4.19864
4.19811
4.19764
4.19722
4.19684
4.1965
4.19618
4.19587
4.19556
4.19523
4.19487
4.19446
4.19397
4.19338
4.19266
4.19177
4.19067
4.18932
4.18769
4.18573
4.18341
4.1807
4.17759
4.17407
4.17017
4.16591
4.16133
4.15648
4.15136
4.14595
4.14002
4.13295
4.12339
4.22049
4.21796
4.21613
4.21459
4.21319
4.21185
4.21056
4.20931
4.2081
4.20695
4.20586
4.20483
4.20388
4.20301
4.20221
4.20149
4.20084
4.20027
4.19975
4.1993
4.19889
4.19853
4.19819
4.19788
4.19758
4.19728
4.19696
4.19662
4.19622
4.19575
4.19517
4.19447
4.19361
4.19255
4.19125
4.18967
4.18777
4.18552
4.1829
4.17989
4.17649
4.17271
4.16859
4.16415
4.15945
4.15449
4.14924
4.14347
4.13655
4.12706
4.22153
4.21904
4.21725
4.21576
4.2144
4.2131
4.21185
4.21064
4.20947
4.20835
4.2073
4.2063
4.20538
4.20454
4.20376
4.20307
4.20244
4.20188
4.20138
4.20094
4.20054
4.20019
4.19987
4.19957
4.19927
4.19898
4.19868
4.19834
4.19795
4.1975
4.19695
4.19627
4.19544
4.19441
4.19315
4.19162
4.18979
4.18762
4.18509
4.18217
4.17888
4.17523
4.17124
4.16695
4.16239
4.15759
4.1525
4.1469
4.14013
4.13071
4.22256
4.2201
4.21836
4.21691
4.21559
4.21434
4.21312
4.21195
4.21082
4.20974
4.20872
4.20776
4.20687
4.20605
4.2053
4.20462
4.20401
4.20347
4.20299
4.20256
4.20218
4.20184
4.20152
4.20123
4.20095
4.20067
4.20037
4.20005
4.19967
4.19923
4.1987
4.19805
4.19724
4.19625
4.19504
4.19356
4.19179
4.18969
4.18724
4.18443
4.18125
4.17772
4.17386
4.16971
4.1653
4.16065
4.15572
4.15028
4.14368
4.13435
4.22357
4.22115
4.21945
4.21804
4.21677
4.21555
4.21438
4.21325
4.21216
4.21111
4.21012
4.20919
4.20833
4.20754
4.20682
4.20616
4.20557
4.20505
4.20458
4.20417
4.2038
4.20347
4.20316
4.20288
4.20261
4.20233
4.20205
4.20173
4.20137
4.20095
4.20043
4.1998
4.19903
4.19807
4.1969
4.19547
4.19377
4.19174
4.18938
4.18666
4.18359
4.18018
4.17645
4.17244
4.16818
4.16368
4.15891
4.15364
4.14719
4.13796
4.22456
4.22219
4.22053
4.21917
4.21793
4.21676
4.21563
4.21453
4.21347
4.21247
4.21151
4.21061
4.20978
4.20901
4.20831
4.20768
4.20711
4.20661
4.20616
4.20575
4.2054
4.20508
4.20478
4.20451
4.20425
4.20398
4.20371
4.2034
4.20306
4.20264
4.20215
4.20154
4.20079
4.19987
4.19874
4.19737
4.19572
4.19377
4.19149
4.18887
4.1859
4.18261
4.17901
4.17513
4.17102
4.16668
4.16206
4.15696
4.15068
4.14154
4.22554
4.22321
4.22159
4.22027
4.21908
4.21795
4.21685
4.2158
4.21478
4.2138
4.21288
4.21202
4.21121
4.21047
4.20979
4.20918
4.20864
4.20815
4.20771
4.20732
4.20698
4.20667
4.20638
4.20612
4.20586
4.20561
4.20534
4.20505
4.20472
4.20432
4.20384
4.20326
4.20254
4.20165
4.20056
4.19924
4.19765
4.19577
4.19357
4.19104
4.18818
4.18501
4.18153
4.1778
4.17383
4.16963
4.16518
4.16024
4.15413
4.1451
4.2265
4.22421
4.22264
4.22137
4.22021
4.21912
4.21807
4.21705
4.21606
4.21512
4.21423
4.2134
4.21262
4.21191
4.21126
4.21067
4.21014
4.20966
4.20924
4.20887
4.20854
4.20824
4.20796
4.20771
4.20746
4.20722
4.20696
4.20668
4.20636
4.20598
4.20552
4.20495
4.20426
4.2034
4.20235
4.20108
4.19955
4.19774
4.19562
4.19319
4.19044
4.18738
4.18403
4.18043
4.1766
4.17256
4.16825
4.16348
4.15754
4.14863
4.22744
4.2252
4.22368
4.22244
4.22133
4.22028
4.21926
4.21828
4.21733
4.21643
4.21557
4.21476
4.21402
4.21333
4.2127
4.21213
4.21162
4.21116
4.21076
4.2104
4.21008
4.20979
4.20952
4.20928
4.20904
4.20881
4.20856
4.20829
4.20798
4.20761
4.20717
4.20663
4.20596
4.20513
4.20413
4.2029
4.20143
4.19969
4.19765
4.19531
4.19266
4.18971
4.18649
4.18302
4.17933
4.17544
4.17129
4.16668
4.16091
4.15214
4.22836
4.22617
4.2247
4.2235
4.22243
4.22142
4.22044
4.21949
4.21858
4.21771
4.21689
4.21611
4.21539
4.21473
4.21412
4.21358
4.21308
4.21265
4.21225
4.21191
4.2116
4.21132
4.21106
4.21083
4.2106
4.21037
4.21013
4.20987
4.20957
4.20922
4.2088
4.20828
4.20763
4.20684
4.20588
4.2047
4.20329
4.20161
4.19965
4.1974
4.19485
4.19202
4.18892
4.18558
4.18203
4.17828
4.17429
4.16984
4.16425
4.15561
4.22927
4.22713
4.2257
4.22455
4.22352
4.22254
4.2216
4.22069
4.21982
4.21898
4.21819
4.21744
4.21675
4.21611
4.21553
4.215
4.21453
4.21411
4.21373
4.21339
4.2131
4.21283
4.21258
4.21236
4.21214
4.21192
4.21169
4.21144
4.21115
4.21081
4.21041
4.20991
4.20929
4.20853
4.2076
4.20647
4.20512
4.20351
4.20163
4.19947
4.19702
4.1943
4.19132
4.18811
4.1847
4.18109
4.17725
4.17296
4.16755
4.15906
4.23016
4.22808
4.22669
4.22558
4.22459
4.22365
4.22275
4.22188
4.22103
4.22023
4.21947
4.21875
4.21809
4.21747
4.21691
4.21641
4.21595
4.21555
4.21518
4.21486
4.21458
4.21432
4.21408
4.21386
4.21365
4.21344
4.21322
4.21298
4.21271
4.21238
4.21199
4.21151
4.21092
4.21019
4.2093
4.20822
4.20692
4.20538
4.20357
4.2015
4.19915
4.19654
4.19368
4.1906
4.18732
4.18386
4.18017
4.17604
4.17081
4.16247
4.23104
4.229
4.22767
4.2266
4.22564
4.22475
4.22388
4.22304
4.22223
4.22146
4.22073
4.22004
4.2194
4.21882
4.21828
4.21779
4.21736
4.21697
4.21662
4.21631
4.21603
4.21579
4.21556
4.21535
4.21515
4.21495
4.21474
4.21451
4.21424
4.21393
4.21356
4.2131
4.21253
4.21184
4.21098
4.20994
4.2087
4.20722
4.20549
4.2035
4.20125
4.19875
4.19601
4.19305
4.18991
4.18659
4.18304
4.17908
4.17403
4.16586
4.2319
4.22992
4.22862
4.2276
4.22668
4.22582
4.22499
4.22419
4.22342
4.22268
4.22197
4.22132
4.2207
4.22014
4.21963
4.21916
4.21874
4.21837
4.21803
4.21774
4.21747
4.21724
4.21702
4.21682
4.21662
4.21643
4.21623
4.21601
4.21575
4.21546
4.2151
4.21466
4.21412
4.21345
4.21264
4.21164
4.21045
4.20904
4.20738
4.20548
4.20333
4.20093
4.1983
4.19547
4.19246
4.18928
4.18588
4.18208
4.17721
4.16921
4.23274
4.23081
4.22957
4.22858
4.22771
4.22688
4.22609
4.22532
4.22458
4.22387
4.2232
4.22257
4.22198
4.22144
4.22095
4.2205
4.2201
4.21975
4.21943
4.21914
4.21889
4.21866
4.21846
4.21826
4.21808
4.21789
4.2177
4.21749
4.21725
4.21696
4.21662
4.2162
4.21568
4.21505
4.21427
4.21332
4.21218
4.21083
4.20925
4.20743
4.20537
4.20307
4.20056
4.19786
4.19498
4.19193
4.18868
4.18504
4.18035
4.17252
4.23356
4.23169
4.2305
4.22955
4.22872
4.22793
4.22717
4.22643
4.22573
4.22505
4.22441
4.2238
4.22324
4.22273
4.22226
4.22183
4.22145
4.2211
4.2208
4.22053
4.22029
4.22007
4.21987
4.21969
4.21951
4.21933
4.21915
4.21894
4.21871
4.21844
4.21812
4.21772
4.21722
4.21662
4.21587
4.21497
4.21388
4.21259
4.21108
4.20934
4.20738
4.20519
4.20279
4.2002
4.19745
4.19454
4.19143
4.18795
4.18345
4.17581
4.23437
4.23256
4.23141
4.23051
4.22971
4.22895
4.22823
4.22753
4.22685
4.22621
4.2256
4.22502
4.22449
4.22399
4.22354
4.22314
4.22277
4.22244
4.22215
4.22189
4.22166
4.22145
4.22126
4.22109
4.22092
4.22075
4.22057
4.22038
4.22016
4.2199
4.21959
4.21921
4.21874
4.21816
4.21745
4.21659
4.21555
4.21433
4.21289
4.21123
4.20936
4.20727
4.20498
4.20252
4.19989
4.19711
4.19415
4.19082
4.1865
4.17906
4.23516
4.23341
4.23231
4.23145
4.23068
4.22997
4.22927
4.22861
4.22796
4.22735
4.22677
4.22622
4.22571
4.22524
4.22481
4.22442
4.22407
4.22376
4.22348
4.22324
4.22301
4.22282
4.22264
4.22247
4.22231
4.22215
4.22198
4.2218
4.22159
4.22134
4.22104
4.22068
4.22023
4.21968
4.21901
4.21819
4.2172
4.21603
4.21467
4.21309
4.21131
4.20932
4.20714
4.20479
4.20229
4.19964
4.19682
4.19364
4.18952
4.18227
4.23594
4.23425
4.23319
4.23237
4.23164
4.23096
4.2303
4.22967
4.22906
4.22847
4.22792
4.2274
4.22691
4.22646
4.22606
4.22569
4.22535
4.22506
4.22479
4.22456
4.22435
4.22416
4.22399
4.22383
4.22367
4.22352
4.22336
4.22319
4.22299
4.22276
4.22247
4.22213
4.2217
4.22118
4.22054
4.21976
4.21883
4.21772
4.21642
4.21492
4.21322
4.21133
4.20926
4.20703
4.20465
4.20214
4.19945
4.19643
4.19249
4.18545
4.2367
4.23507
4.23406
4.23328
4.23259
4.23194
4.23132
4.23071
4.23013
4.22958
4.22905
4.22856
4.2281
4.22767
4.22728
4.22693
4.22662
4.22633
4.22608
4.22586
4.22566
4.22548
4.22532
4.22517
4.22502
4.22488
4.22472
4.22456
4.22437
4.22415
4.22388
4.22356
4.22315
4.22266
4.22205
4.22131
4.22042
4.21937
4.21814
4.21672
4.21511
4.21332
4.21135
4.20924
4.20698
4.20459
4.20204
4.19917
4.19541
4.1886
4.23744
4.23587
4.23492
4.23417
4.23352
4.2329
4.23231
4.23174
4.23119
4.23066
4.23017
4.2297
4.22926
4.22886
4.22849
4.22816
4.22786
4.22759
4.22735
4.22714
4.22695
4.22678
4.22663
4.22648
4.22635
4.22621
4.22606
4.22591
4.22573
4.22552
4.22527
4.22496
4.22458
4.22411
4.22353
4.22284
4.222
4.221
4.21983
4.21849
4.21697
4.21527
4.21341
4.2114
4.20927
4.207
4.20458
4.20187
4.1983
4.19171
4.23817
4.23667
4.23575
4.23505
4.23443
4.23385
4.23329
4.23275
4.23223
4.23173
4.23126
4.23082
4.23041
4.23003
4.22968
4.22936
4.22908
4.22883
4.2286
4.2284
4.22822
4.22806
4.22792
4.22778
4.22765
4.22752
4.22738
4.22724
4.22707
4.22687
4.22663
4.22634
4.22598
4.22554
4.225
4.22434
4.22354
4.2226
4.2215
4.22023
4.21879
4.21719
4.21543
4.21354
4.21152
4.20938
4.20709
4.20452
4.20114
4.19478
4.23888
4.23744
4.23658
4.23591
4.23533
4.23478
4.23425
4.23375
4.23326
4.23279
4.23234
4.23192
4.23153
4.23117
4.23085
4.23055
4.23028
4.23004
4.22983
4.22964
4.22947
4.22932
4.22918
4.22906
4.22893
4.22881
4.22868
4.22854
4.22838
4.2282
4.22797
4.2277
4.22736
4.22694
4.22643
4.22581
4.22506
4.22418
4.22314
4.22195
4.22059
4.21908
4.21742
4.21564
4.21373
4.21171
4.20956
4.20713
4.20393
4.19782
4.23958
4.23821
4.23739
4.23676
4.23621
4.2357
4.2352
4.23472
4.23426
4.23382
4.2334
4.23301
4.23264
4.2323
4.232
4.23172
4.23147
4.23124
4.23104
4.23086
4.2307
4.23056
4.23043
4.23031
4.23019
4.23008
4.22996
4.22983
4.22968
4.2295
4.22929
4.22903
4.22872
4.22832
4.22785
4.22726
4.22656
4.22573
4.22475
4.22363
4.22236
4.22094
4.21938
4.2177
4.21591
4.21401
4.21198
4.2097
4.20669
4.20082
4.24026
4.23896
4.23819
4.2376
4.23708
4.2366
4.23613
4.23568
4.23525
4.23484
4.23444
4.23408
4.23373
4.23342
4.23313
4.23286
4.23263
4.23242
4.23223
4.23206
4.23191
4.23178
4.23166
4.23154
4.23144
4.23133
4.23121
4.23109
4.23095
4.23079
4.23059
4.23035
4.23005
4.22968
4.22924
4.22869
4.22803
4.22725
4.22634
4.22529
4.22409
4.22276
4.2213
4.21973
4.21805
4.21627
4.21437
4.21223
4.2094
4.20379
4.24093
4.23969
4.23897
4.23842
4.23793
4.23748
4.23705
4.23663
4.23622
4.23584
4.23547
4.23512
4.2348
4.23451
4.23424
4.23399
4.23377
4.23357
4.2334
4.23324
4.2331
4.23298
4.23286
4.23276
4.23266
4.23255
4.23245
4.23233
4.2322
4.23205
4.23187
4.23164
4.23136
4.23102
4.2306
4.23009
4.22948
4.22875
4.2279
4.22692
4.2258
4.22456
4.22319
4.22172
4.22015
4.21849
4.21672
4.21472
4.21206
4.20672
4.24158
4.24041
4.23974
4.23922
4.23877
4.23835
4.23795
4.23756
4.23718
4.23682
4.23648
4.23616
4.23586
4.23558
4.23533
4.2351
4.2349
4.23471
4.23455
4.2344
4.23427
4.23416
4.23405
4.23395
4.23386
4.23376
4.23366
4.23356
4.23344
4.23329
4.23312
4.23291
4.23265
4.23233
4.23195
4.23147
4.2309
4.23022
4.22943
4.22852
4.22748
4.22632
4.22505
4.22368
4.22222
4.22068
4.21902
4.21716
4.21469
4.20962
4.24222
4.24112
4.24049
4.24001
4.23959
4.2392
4.23883
4.23847
4.23812
4.23778
4.23747
4.23717
4.23689
4.23664
4.2364
4.23619
4.236
4.23583
4.23568
4.23554
4.23542
4.23531
4.23521
4.23512
4.23504
4.23495
4.23486
4.23476
4.23465
4.23451
4.23435
4.23416
4.23392
4.23363
4.23327
4.23283
4.2323
4.23167
4.23094
4.23009
4.22913
4.22806
4.22688
4.22561
4.22426
4.22282
4.22129
4.21956
4.21727
4.21248
4.24285
4.24182
4.24123
4.24079
4.2404
4.24004
4.2397
4.23936
4.23904
4.23873
4.23844
4.23817
4.23791
4.23767
4.23746
4.23726
4.23709
4.23693
4.23679
4.23666
4.23655
4.23645
4.23636
4.23628
4.2362
4.23611
4.23603
4.23594
4.23584
4.23571
4.23557
4.23539
4.23517
4.2349
4.23456
4.23416
4.23367
4.23309
4.23242
4.23164
4.23075
4.22976
4.22868
4.2275
4.22625
4.22493
4.22352
4.22192
4.2198
4.2153
4.24346
4.2425
4.24196
4.24155
4.2412
4.24087
4.24055
4.24024
4.23995
4.23967
4.2394
4.23914
4.23891
4.23869
4.23849
4.23831
4.23815
4.23801
4.23788
4.23776
4.23766
4.23757
4.23749
4.23741
4.23733
4.23726
4.23718
4.2371
4.237
4.23689
4.23676
4.23659
4.23639
4.23614
4.23584
4.23547
4.23502
4.23449
4.23387
4.23315
4.23234
4.23143
4.23044
4.22936
4.22822
4.227
4.22571
4.22424
4.2223
4.21809
4.24405
4.24317
4.24267
4.2423
4.24198
4.24168
4.24139
4.24111
4.24084
4.24058
4.24034
4.24011
4.23989
4.23969
4.23951
4.23935
4.2392
4.23907
4.23895
4.23885
4.23875
4.23867
4.23859
4.23852
4.23845
4.23839
4.23832
4.23824
4.23815
4.23805
4.23793
4.23778
4.2376
4.23737
4.23709
4.23675
4.23635
4.23586
4.2353
4.23465
4.23391
4.23308