/*--------------------------------*- C++ -*----------------------------------*\
| =========                 |                                                 |
| \\      /  F ield         | OpenFOAM: The Open Source CFD Toolbox           |
|  \\    /   O peration     | Version:  v1906                                 |
|   \\  /    A nd           | Web:      www.OpenFOAM.com                      |
|    \\/     M anipulation  |                                                 |
\*---------------------------------------------------------------------------*/
FoamFile
{
    version     2.0;
    format      ascii;
    class       volVectorField;
    location    "10368000";
    object      Uvol;
}
// * * * * * * * * * * * * * * * * * * * * * * * * * * * * * * * * * * * * * //

dimensions      [0 1 -1 0 0 0 0];


internalField   nonuniform List<vector> 
4250
(
(2.51456e-09 0 -9.11297e-10)
(1.57308e-09 -1.048e-24 -8.19845e-10)
(2.15593e-09 0 -8.77726e-10)
(2.51503e-09 2.07916e-24 -9.26604e-10)
(2.79272e-09 0 -9.70701e-10)
(3.03454e-09 0 -1.01273e-09)
(3.25973e-09 0 -1.05393e-09)
(3.47682e-09 0 -1.09482e-09)
(3.68954e-09 0 -1.13564e-09)
(3.89954e-09 0 -1.17651e-09)
(4.10766e-09 0 -1.21752e-09)
(4.3145e-09 0 -1.25876e-09)
(4.52067e-09 0 -1.30035e-09)
(4.72688e-09 0 -1.34242e-09)
(4.93388e-09 -1.02292e-24 -1.3851e-09)
(5.14241e-09 -2.11664e-24 -1.42854e-09)
(5.35313e-09 0 -1.47288e-09)
(5.56652e-09 -2.10624e-24 -1.51824e-09)
(5.78285e-09 0 -1.56473e-09)
(6.00212e-09 -1.00158e-24 -1.61247e-09)
(6.22402e-09 2.08077e-24 -1.66156e-09)
(6.44788e-09 2.06927e-24 -1.7121e-09)
(6.67272e-09 9.69963e-26 -1.76423e-09)
(6.89722e-09 -9.70101e-25 -1.81811e-09)
(7.11977e-09 1.04354e-25 -1.87399e-09)
(7.33855e-09 -2.00277e-24 -1.93224e-09)
(7.55168e-09 -9.32955e-25 -1.99339e-09)
(7.75732e-09 -1.95092e-24 -2.05823e-09)
(7.95399e-09 8.96682e-25 -2.12792e-09)
(8.14083e-09 1.87669e-24 -2.20415e-09)
(8.31824e-09 1.82645e-24 -2.28938e-09)
(8.48896e-09 -8.07335e-25 -2.38725e-09)
(8.66041e-09 7.60653e-25 -2.50327e-09)
(8.8491e-09 0 -2.646e-09)
(9.08885e-09 -6.1675e-25 -2.82874e-09)
(9.44185e-09 -7.29264e-25 -3.07019e-09)
(9.93849e-09 0 -3.3667e-09)
(1.03142e-08 4.12686e-25 -2.87759e-09)
(2.09387e-08 1.68863e-24 1.73398e-08)
(1.18003e-08 4.69063e-24 -9.97182e-09)
(9.4466e-09 0 -1.01386e-08)
(7.57763e-09 0 -9.92294e-09)
(5.68225e-09 0 -9.77449e-09)
(4.33486e-09 0 -9.6657e-09)
(3.30738e-09 0 -9.57659e-09)
(2.45492e-09 0 -9.49989e-09)
(1.79699e-09 0 -9.44835e-09)
(1.77769e-09 0 -9.50045e-09)
(3.98965e-09 0 -9.87318e-09)
(4.75697e-08 0 -1.36296e-08)
(2.3313e-09 0 -1.25493e-09)
(1.4631e-09 -4.25289e-26 -1.00718e-09)
(1.99846e-09 0 -1.05487e-09)
(2.33743e-09 4.67243e-26 -1.10172e-09)
(2.59809e-09 0 -1.14428e-09)
(2.82401e-09 0 -1.18481e-09)
(3.03362e-09 0 -1.22441e-09)
(3.23513e-09 0 -1.26351e-09)
(3.4321e-09 0 -1.30223e-09)
(3.62614e-09 0 -1.3406e-09)
(3.81802e-09 0 -1.37863e-09)
(4.0083e-09 0 -1.41637e-09)
(4.19755e-09 0 -1.45391e-09)
(4.38639e-09 0 -1.49137e-09)
(4.57549e-09 0 -1.52885e-09)
(4.76552e-09 -7.12464e-26 -1.56649e-09)
(4.95705e-09 0 -1.60438e-09)
(5.15049e-09 -7.59492e-26 -1.64259e-09)
(5.34605e-09 0 -1.68111e-09)
(5.54368e-09 0 -1.71991e-09)
(5.74304e-09 8.36664e-26 -1.75886e-09)
(5.94346e-09 8.64724e-26 -1.79779e-09)
(6.14396e-09 8.94316e-26 -1.83642e-09)
(6.34324e-09 0 -1.87443e-09)
(6.53968e-09 9.59483e-26 -1.9114e-09)
(6.73148e-09 -1.18947e-24 -1.94685e-09)
(6.91666e-09 2.16528e-24 -1.98023e-09)
(7.09323e-09 9.65787e-25 -2.01096e-09)
(7.25935e-09 1.06319e-24 -2.03836e-09)
(7.41354e-09 -9.30942e-25 -2.0617e-09)
(7.55505e-09 1.25906e-25 -2.08014e-09)
(7.68462e-09 1.01229e-24 -2.09263e-09)
(7.80585e-09 0 -2.09782e-09)
(7.92798e-09 0 -2.09353e-09)
(8.06992e-09 0 -2.07455e-09)
(8.26299e-09 -1.97305e-25 -2.02229e-09)
(8.52112e-09 0 -1.83886e-09)
(8.72426e-09 2.93551e-25 -4.27197e-10)
(1.15191e-08 -1.59885e-25 1.59918e-08)
(1.02218e-08 -9.98854e-25 -2.35985e-09)
(1.09583e-08 0 -2.60773e-09)
(9.17561e-09 0 -2.13845e-09)
(7.29104e-09 0 -1.87566e-09)
(5.95426e-09 0 -1.68035e-09)
(4.93872e-09 0 -1.51347e-09)
(4.09608e-09 0 -1.36643e-09)
(3.43192e-09 0 -1.27336e-09)
(3.34548e-09 0 -1.42182e-09)
(5.04915e-09 0 -2.24584e-09)
(4.80104e-08 0 -9.30664e-09)
(2.14084e-09 -1.05022e-24 -1.71745e-09)
(1.31999e-09 1.02454e-24 -1.4368e-09)
(1.81685e-09 0 -1.44398e-09)
(2.13861e-09 4.34981e-26 -1.47478e-09)
(2.38488e-09 0 -1.50889e-09)
(2.5972e-09 0 -1.54421e-09)
(2.7934e-09 0 -1.58012e-09)
(2.98142e-09 0 -1.61627e-09)
(3.16475e-09 0 -1.65239e-09)
(3.3449e-09 0 -1.6883e-09)
(3.52262e-09 0 -1.72394e-09)
(3.69844e-09 0 -1.75931e-09)
(3.87287e-09 0 -1.79447e-09)
(4.04648e-09 0 -1.82952e-09)
(4.21989e-09 0 -1.86457e-09)
(4.39367e-09 -6.60108e-26 -1.89974e-09)
(4.56835e-09 0 -1.93509e-09)
(4.74428e-09 -7.02656e-26 -1.97069e-09)
(4.92161e-09 0 -2.00653e-09)
(5.10024e-09 0 -2.04255e-09)
(5.2798e-09 7.72062e-26 -2.07863e-09)
(5.45959e-09 7.97171e-26 -2.11458e-09)
(5.6386e-09 8.23574e-26 -2.15013e-09)
(5.8155e-09 0 -2.18495e-09)
(5.98863e-09 -2.16055e-24 -2.21865e-09)
(6.15609e-09 9.37366e-25 -2.25078e-09)
(6.31578e-09 -3.15477e-24 -2.28083e-09)
(6.46546e-09 -1.10835e-24 -2.30827e-09)
(6.60291e-09 -9.97002e-25 -2.33254e-09)
(6.726e-09 -1.09008e-24 -2.35306e-09)
(6.83297e-09 1.14221e-25 -2.36926e-09)
(6.92283e-09 -9.39323e-25 -2.38062e-09)
(6.99629e-09 0 -2.38684e-09)
(7.05726e-09 0 -2.38808e-09)
(7.11463e-09 0 -2.38509e-09)
(7.17947e-09 -1.72201e-25 -2.3776e-09)
(7.22686e-09 0 -2.35106e-09)
(7.10752e-09 2.36793e-25 -2.12236e-09)
(5.7535e-09 -5.58868e-25 1.40251e-09)
(2.10796e-08 -1.12628e-24 5.64049e-08)
(1.10455e-08 0 -2.26726e-09)
(9.17823e-09 0 -2.3293e-09)
(7.26035e-09 0 -2.14045e-09)
(5.91053e-09 0 -1.99003e-09)
(4.88863e-09 0 -1.84598e-09)
(4.0395e-09 0 -1.71134e-09)
(3.3533e-09 0 -1.63608e-09)
(3.19545e-09 0 -1.86847e-09)
(4.51634e-09 0 -2.8286e-09)
(4.76927e-08 0 -9.06431e-09)
(1.96789e-09 1.02433e-24 -2.16341e-09)
(1.19196e-09 0 -1.85522e-09)
(1.65214e-09 0 -1.82718e-09)
(1.9568e-09 4.05385e-26 -1.84259e-09)
(2.18966e-09 0 -1.86863e-09)
(2.38963e-09 0 -1.89902e-09)
(2.57383e-09 0 -1.93151e-09)
(2.74988e-09 0 -1.96494e-09)
(2.92115e-09 0 -1.99869e-09)
(3.0891e-09 0 -2.03239e-09)
(3.25444e-09 0 -2.06589e-09)
(3.41764e-09 0 -2.09914e-09)
(3.5792e-09 0 -2.13218e-09)
(3.73962e-09 0 -2.1651e-09)
(3.89948e-09 0 -2.198e-09)
(4.05932e-09 -6.13102e-26 -2.23097e-09)
(4.21958e-09 0 -2.26409e-09)
(4.38058e-09 1.08784e-24 -2.2974e-09)
(4.54244e-09 0 -2.33088e-09)
(4.70503e-09 0 -2.36446e-09)
(4.86796e-09 -2.23784e-24 -2.39803e-09)
(5.03053e-09 -1.08055e-24 -2.43137e-09)
(5.19172e-09 7.61107e-26 -2.46423e-09)
(5.3502e-09 1.152e-24 -2.49629e-09)
(5.50432e-09 1.06867e-24 -2.52716e-09)
(5.65217e-09 -8.41766e-26 -2.5564e-09)
(5.79158e-09 -1.23093e-24 -2.58354e-09)
(5.92021e-09 1.04819e-24 -2.60809e-09)
(6.03564e-09 -1.13303e-24 -2.62955e-09)
(6.13541e-09 1.02625e-24 -2.64743e-09)
(6.2172e-09 1.0428e-25 -2.66131e-09)
(6.27909e-09 1.10259e-24 -2.67093e-09)
(6.32015e-09 0 -2.67647e-09)
(6.34146e-09 -1.06279e-24 -2.67907e-09)
(6.34679e-09 0 -2.6817e-09)
(6.33832e-09 8.36667e-25 -2.68979e-09)
(6.28069e-09 -9.29914e-25 -2.70675e-09)
(6.03245e-09 2.01446e-25 -2.66857e-09)
(5.76809e-09 4.58396e-25 -1.94268e-09)
(7.64894e-09 8.09793e-26 2.03593e-08)
(4.66846e-09 0 -2.09033e-09)
(9.11604e-09 0 -2.50897e-09)
(7.22399e-09 0 -2.39758e-09)
(5.86417e-09 0 -2.29271e-09)
(4.8377e-09 0 -2.17172e-09)
(3.98267e-09 0 -2.04884e-09)
(3.27202e-09 0 -1.9868e-09)
(3.04001e-09 0 -2.29465e-09)
(4.03687e-09 0 -3.35351e-09)
(4.74045e-08 0 -8.90968e-09)
(1.81018e-09 -1.06634e-24 -2.59424e-09)
(1.07688e-09 -1.08068e-24 -2.26297e-09)
(1.5022e-09 0 -2.20426e-09)
(1.79001e-09 3.78136e-26 -2.2051e-09)
(2.01026e-09 0 -2.22346e-09)
(2.19894e-09 0 -2.2492e-09)
(2.37231e-09 0 -2.27848e-09)
(2.53767e-09 0 -2.30942e-09)
(2.69824e-09 0 -2.341e-09)
(2.85539e-09 0 -2.37271e-09)
(3.0098e-09 0 -2.40428e-09)
(3.16193e-09 0 -2.43563e-09)
(3.3122e-09 0 -2.46678e-09)
(3.46112e-09 0 -2.4978e-09)
(3.6092e-09 -1.16239e-24 -2.52877e-09)
(3.75693e-09 1.1082e-24 -2.5598e-09)
(3.90473e-09 0 -2.59093e-09)
(4.05289e-09 -1.16988e-24 -2.62221e-09)
(4.20149e-09 0 -2.65361e-09)
(4.35039e-09 0 -2.68505e-09)
(4.49919e-09 -6.63428e-26 -2.7164e-09)
(4.6472e-09 0 -2.74746e-09)
(4.79341e-09 7.05508e-26 -2.77798e-09)
(4.93653e-09 7.28196e-26 -2.80762e-09)
(5.07492e-09 1.17331e-24 -2.83602e-09)
(5.20669e-09 2.26581e-24 -2.86275e-09)
(5.32967e-09 1.00833e-24 -2.88737e-09)
(5.4415e-09 -1.16655e-24 -2.9094e-09)
(5.53966e-09 -8.72126e-26 -2.9284e-09)
(5.62155e-09 0 -2.94393e-09)
(5.68452e-09 -1.0538e-24 -2.95565e-09)
(5.72614e-09 1.01042e-25 -2.96344e-09)
(5.74457e-09 1.12639e-24 -2.96771e-09)
(5.73925e-09 9.9321e-25 -2.97005e-09)
(5.71115e-09 -1.08381e-24 -2.97432e-09)
(5.65819e-09 0 -2.98788e-09)
(5.54364e-09 8.48352e-25 -3.01874e-09)
(5.23901e-09 -7.56443e-25 -3.02767e-09)
(4.83896e-09 0 -2.77086e-09)
(2.57755e-09 0 -1.55213e-09)
(1.96286e-08 0 7.28249e-08)
(9.22562e-09 0 -1.92574e-09)
(7.18385e-09 0 -2.6399e-09)
(5.81521e-09 0 -2.58868e-09)
(4.78596e-09 0 -2.49096e-09)
(3.92589e-09 0 -2.37919e-09)
(3.18894e-09 0 -2.32546e-09)
(2.88143e-09 0 -2.70169e-09)
(3.60211e-09 0 -3.83009e-09)
(4.71398e-08 0 -8.82979e-09)
(1.66581e-09 1.04596e-24 -3.01119e-09)
(9.72986e-10 -3.17601e-26 -2.66053e-09)
(1.36524e-09 0 -2.57511e-09)
(1.63651e-09 3.52965e-26 -2.56229e-09)
(1.84484e-09 0 -2.57335e-09)
(2.02312e-09 0 -2.59471e-09)
(2.18668e-09 0 -2.621e-09)
(2.34243e-09 0 -2.64962e-09)
(2.49342e-09 0 -2.67923e-09)
(2.64096e-09 0 -2.70912e-09)
(2.78568e-09 0 -2.73895e-09)
(2.92801e-09 0 -2.76859e-09)
(3.06834e-09 0 -2.79804e-09)
(3.20714e-09 0 -2.82735e-09)
(3.34489e-09 -5.1635e-26 -2.85661e-09)
(3.48205e-09 -1.18005e-24 -2.88589e-09)
(3.61901e-09 0 -2.91526e-09)
(3.75601e-09 1.1294e-24 -2.94473e-09)
(3.89314e-09 0 -2.97428e-09)
(4.03024e-09 0 -3.00382e-09)
(4.16691e-09 -6.17286e-26 -3.03321e-09)
(4.30248e-09 0 -3.06227e-09)
(4.43597e-09 6.55684e-26 -3.09072e-09)
(4.56611e-09 6.76327e-26 -3.11826e-09)
(4.69131e-09 6.98231e-26 -3.1445e-09)
(4.80972e-09 -2.31672e-24 -3.16906e-09)
(4.91919e-09 -7.47162e-26 -3.19148e-09)
(5.01739e-09 -7.75126e-26 -3.21133e-09)
(5.10178e-09 -8.06287e-26 -3.22819e-09)
(5.16968e-09 -1.18534e-24 -3.24166e-09)
(5.21832e-09 -1.18008e-24 -3.25146e-09)
(5.24497e-09 -1.07983e-24 -3.25753e-09)
(5.24725e-09 9.8578e-26 -3.2604e-09)
(5.22365e-09 1.14866e-24 -3.26186e-09)
(5.17348e-09 2.14455e-24 -3.26611e-09)
(5.0926e-09 0 -3.28108e-09)
(4.94616e-09 0 -3.3158e-09)
(4.62121e-09 0 -3.33809e-09)
(4.19009e-09 0 -3.1828e-09)
(3.85216e-09 -7.89557e-25 -2.80823e-09)
(6.15695e-09 0 2.20728e-08)
(9.09282e-09 0 3.69972e-08)
(7.13599e-09 0 -2.49022e-09)
(5.76363e-09 0 -2.87453e-09)
(4.73347e-09 0 -2.80393e-09)
(3.86944e-09 0 -2.70269e-09)
(3.10483e-09 0 -2.65204e-09)
(2.72139e-09 0 -3.09091e-09)
(3.20488e-09 0 -4.2657e-09)
(4.68936e-08 0 -8.81409e-09)
(1.53318e-09 0 -3.41533e-09)
(8.78789e-10 -2.95604e-26 -3.04837e-09)
(1.23973e-09 0 -2.93967e-09)
(1.49482e-09 3.29643e-26 -2.91413e-09)
(1.69184e-09 0 -2.91831e-09)
(1.8605e-09 0 -2.93553e-09)
(2.0151e-09 0 -2.95902e-09)
(2.16216e-09 0 -2.9855e-09)
(2.30454e-09 0 -3.0133e-09)
(2.44348e-09 0 -3.04153e-09)
(2.57956e-09 0 -3.06978e-09)
(2.71317e-09 0 -3.09788e-09)
(2.84468e-09 0 -3.12579e-09)
(2.97453e-09 0 -3.15357e-09)
(3.10317e-09 -4.82382e-26 -3.18128e-09)
(3.23103e-09 1.14467e-24 -3.209e-09)
(3.35847e-09 0 -3.23679e-09)
(3.48572e-09 0 -3.26464e-09)
(3.61284e-09 0 -3.29253e-09)
(3.73968e-09 -1.20684e-24 -3.32038e-09)
(3.86586e-09 1.15161e-24 -3.34804e-09)
(3.9907e-09 0 -3.37532e-09)
(4.11327e-09 6.10766e-26 -3.40195e-09)
(4.23233e-09 6.29657e-26 -3.42763e-09)
(4.34635e-09 6.49664e-26 -3.45199e-09)
(4.45352e-09 1.14842e-24 -3.47464e-09)
(4.55175e-09 1.14611e-24 -3.49516e-09)
(4.63874e-09 1.14299e-24 -3.51312e-09)
(4.71198e-09 -7.47789e-26 -3.52812e-09)
(4.76878e-09 2.34485e-24 -3.53981e-09)
(4.80633e-09 1.12632e-24 -3.54793e-09)
(4.82173e-09 -1.20277e-24 -3.55246e-09)
(4.81233e-09 -1.10445e-24 -3.554e-09)
(4.77601e-09 9.68874e-26 -3.55439e-09)
(4.7111e-09 1.04249e-25 -3.55791e-09)
(4.61245e-09 0 -3.57253e-09)
(4.44821e-09 -1.11631e-24 -3.60724e-09)
(4.11993e-09 1.07078e-24 -3.63312e-09)
(3.67504e-09 0 -3.51844e-09)
(3.24151e-09 -1.95975e-25 -3.48109e-09)
(1.97825e-09 7.26443e-25 -3.21684e-09)
(4.39886e-09 0 1.75257e-08)
(3.11941e-09 0 -2.39465e-09)
(5.67039e-09 0 -3.15147e-09)
(4.67988e-09 0 -3.11087e-09)
(3.8136e-09 0 -3.01969e-09)
(3.02036e-09 0 -2.96654e-09)
(2.56115e-09 0 -3.46365e-09)
(2.83914e-09 0 -4.66601e-09)
(4.66615e-08 0 -8.85393e-09)
(1.41093e-09 0 -3.80757e-09)
(7.93037e-10 -2.75166e-26 -3.42693e-09)
(1.12435e-09 0 -3.29792e-09)
(1.36369e-09 3.07972e-26 -3.26062e-09)
(1.54992e-09 0 -3.25833e-09)
(1.70962e-09 0 -3.27167e-09)
(1.85601e-09 0 -3.29253e-09)
(1.99518e-09 0 -3.31703e-09)
(2.12979e-09 0 -3.34315e-09)
(2.26099e-09 0 -3.36988e-09)
(2.38932e-09 0 -3.39669e-09)
(2.51513e-09 0 -3.42338e-09)
(2.63877e-09 0 -3.44991e-09)
(2.76066e-09 0 -3.47629e-09)
(2.88121e-09 -4.51239e-26 -3.50261e-09)
(3.00084e-09 0 -3.52892e-09)
(3.11987e-09 0 -3.55527e-09)
(3.23853e-09 -1.21618e-24 -3.58167e-09)
(3.35687e-09 0 -3.60808e-09)
(3.47473e-09 1.17057e-24 -3.63441e-09)
(3.59174e-09 0 -3.66053e-09)
(3.70726e-09 -1.22823e-24 -3.68622e-09)
(3.82038e-09 5.70056e-26 -3.71124e-09)
(3.9299e-09 5.8743e-26 -3.73528e-09)
(4.03435e-09 6.05801e-26 -3.75798e-09)
(4.13197e-09 1.23541e-24 -3.77896e-09)
(4.22073e-09 -1.23629e-24 -3.79782e-09)
(4.29839e-09 0 -3.81414e-09)
(4.3625e-09 -1.30604e-24 -3.82754e-09)
(4.41038e-09 -3.63422e-24 -3.83769e-09)
(4.43923e-09 0 -3.84436e-09)
(4.4461e-09 2.38099e-24 -3.84756e-09)
(4.42817e-09 0 -3.84788e-09)
(4.38295e-09 8.94506e-26 -3.8472e-09)
(4.30818e-09 9.59862e-26 -3.84971e-09)
(4.19826e-09 1.18828e-24 -3.86322e-09)
(4.02462e-09 1.049e-24 -3.89633e-09)
(3.70162e-09 -9.98762e-25 -3.92274e-09)
(3.25896e-09 0 -3.82714e-09)
(2.80003e-09 8.1084e-25 -3.8435e-09)
(1.74867e-09 -6.33922e-25 -3.89501e-09)
(8.37953e-10 6.08844e-25 -1.61112e-11)
(1.21092e-08 0 4.48441e-08)
(5.6708e-09 0 -2.97254e-09)
(4.62619e-09 0 -3.40775e-09)
(3.75863e-09 0 -3.33052e-09)
(2.9361e-09 0 -3.26895e-09)
(2.40165e-09 0 -3.82122e-09)
(2.49986e-09 0 -5.03529e-09)
(4.64397e-08 0 -8.94229e-09)
(1.29789e-09 0 -4.18874e-09)
(7.1467e-10 -2.56129e-26 -3.7966e-09)
(1.01796e-09 0 -3.64989e-09)
(1.242e-09 2.87783e-26 -3.60179e-09)
(1.41793e-09 0 -3.59343e-09)
(1.56926e-09 0 -3.60311e-09)
(1.70809e-09 0 -3.62153e-09)
(1.84005e-09 0 -3.64418e-09)
(1.9676e-09 0 -3.66876e-09)
(2.09181e-09 0 -3.6941e-09)
(2.21315e-09 0 -3.7196e-09)
(2.33195e-09 0 -3.74501e-09)
(2.44855e-09 0 -3.77027e-09)
(2.56332e-09 0 -3.7954e-09)
(2.67665e-09 -4.22581e-26 -3.82045e-09)
(2.78895e-09 0 -3.84549e-09)
(2.90051e-09 0 -3.87054e-09)
(3.01156e-09 1.18472e-24 -3.89563e-09)
(3.12214e-09 0 -3.9207e-09)
(3.23209e-09 -1.23834e-24 -3.94567e-09)
(3.34105e-09 0 -3.97039e-09)
(3.44841e-09 1.193e-24 -3.99466e-09)
(3.55328e-09 -1.19429e-24 -4.01824e-09)
(3.65452e-09 -1.19523e-24 -4.04083e-09)
(3.75071e-09 5.65984e-26 -4.06206e-09)
(3.84014e-09 5.84052e-26 -4.08158e-09)
(3.92086e-09 1.19566e-24 -4.09898e-09)
(3.99068e-09 0 -4.11388e-09)
(4.04722e-09 2.38639e-24 -4.12589e-09)
(4.08786e-09 1.12325e-24 -4.13472e-09)
(4.10981e-09 -1.25755e-24 -4.14015e-09)
(4.11016e-09 7.39528e-26 -4.14219e-09)
(4.08596e-09 -1.25248e-24 -4.14146e-09)
(4.03455e-09 8.28825e-26 -4.13977e-09)
(3.95326e-09 8.87382e-26 -4.14121e-09)
(3.83638e-09 9.59079e-26 -4.15327e-09)
(3.65849e-09 1.20503e-24 -4.18415e-09)
(3.34518e-09 1.17511e-24 -4.21019e-09)
(2.91225e-09 -1.12933e-24 -4.12619e-09)
(2.44878e-09 0 -4.16063e-09)
(1.54841e-09 9.48127e-25 -4.2492e-09)
(1.64758e-09 -5.10161e-25 -2.31896e-09)
(4.83886e-09 4.59196e-25 1.76873e-08)
(9.36506e-10 0 -2.81593e-09)
(4.52751e-09 0 -3.69516e-09)
(3.70436e-09 0 -3.63558e-09)
(2.85257e-09 0 -3.55925e-09)
(2.2436e-09 0 -4.16491e-09)
(2.1828e-09 0 -5.37671e-09)
(4.62252e-08 0 -9.07341e-09)
(1.19306e-09 0 -4.55953e-09)
(6.42789e-10 -2.38356e-26 -4.15776e-09)
(9.19595e-10 0 -3.99565e-09)
(1.12881e-09 2.6893e-26 -3.93766e-09)
(1.29487e-09 1.16165e-24 -3.92364e-09)
(1.43834e-09 0 -3.92989e-09)
(1.57017e-09 0 -3.94602e-09)
(1.69552e-09 0 -3.96695e-09)
(1.81665e-09 0 -3.99011e-09)
(1.93451e-09 0 -4.01416e-09)
(2.04953e-09 0 -4.03846e-09)
(2.16201e-09 0 -4.0627e-09)
(2.27226e-09 0 -4.08681e-09)
(2.38063e-09 0 -4.11079e-09)
(2.48749e-09 -3.9612e-26 -4.13469e-09)
(2.59323e-09 0 -4.15856e-09)
(2.69813e-09 0 -4.18244e-09)
(2.8024e-09 -1.24541e-24 -4.20633e-09)
(2.90608e-09 0 -4.23019e-09)
(3.00902e-09 -4.57859e-26 -4.25392e-09)
(3.11086e-09 0 -4.27739e-09)
(3.21103e-09 0 -4.30039e-09)
(3.30866e-09 0 -4.32269e-09)
(3.40266e-09 0 -4.34397e-09)
(3.49166e-09 5.29674e-26 -4.36391e-09)
(3.57401e-09 5.4639e-26 -4.38213e-09)
(3.64784e-09 1.27495e-24 -4.39826e-09)
(3.71102e-09 0 -4.4119e-09)
(3.76122e-09 -1.27853e-24 -4.42273e-09)
(3.79592e-09 1.21667e-24 -4.43042e-09)
(3.81238e-09 -6.57428e-26 -4.43478e-09)
(3.8077e-09 -1.21081e-24 -4.43585e-09)
(3.77892e-09 2.48349e-24 -4.43421e-09)
(3.72325e-09 -1.19754e-24 -4.43162e-09)
(3.63779e-09 8.23227e-26 -4.43201e-09)
(3.51688e-09 8.87592e-26 -4.44251e-09)
(3.33799e-09 9.6725e-26 -4.47094e-09)
(3.03648e-09 1.06907e-25 -4.49638e-09)
(2.61687e-09 1.0608e-24 -4.4214e-09)
(2.16005e-09 -1.12304e-24 -4.4588e-09)
(1.37656e-09 1.66262e-25 -4.53596e-09)
(1.40077e-09 8.82312e-25 -3.24506e-09)
(7.18095e-10 2.95779e-25 -2.02635e-09)
(1.09369e-08 0 4.74971e-08)
(4.52416e-09 0 -3.51378e-09)
(3.65192e-09 0 -3.93107e-09)
(2.77024e-09 0 -3.83736e-09)
(2.08752e-09 0 -4.49601e-09)
(1.88437e-09 0 -5.69252e-09)
(4.60151e-08 0 -9.24262e-09)
(1.0956e-09 0 -4.92056e-09)
(5.76622e-10 -2.21728e-26 -4.51076e-09)
(8.28387e-10 0 -4.33524e-09)
(1.02326e-09 2.51285e-26 -4.26825e-09)
(1.17987e-09 -1.14685e-24 -4.24897e-09)
(1.31593e-09 0 -4.25202e-09)
(1.44127e-09 0 -4.26601e-09)
(1.56054e-09 0 -4.28534e-09)
(1.6758e-09 0 -4.30718e-09)
(1.78787e-09 0 -4.33005e-09)
(1.89715e-09 0 -4.35324e-09)
(2.0039e-09 0 -4.37642e-09)
(2.1084e-09 0 -4.39947e-09)
(2.211e-09 0 -4.42239e-09)
(2.31204e-09 -3.71613e-26 -4.44523e-09)
(2.41188e-09 0 -4.46804e-09)
(2.5108e-09 0 -4.49085e-09)
(2.60901e-09 1.21939e-24 -4.51366e-09)
(2.70652e-09 0 -4.53641e-09)
(2.80321e-09 1.22593e-24 -4.55902e-09)
(2.89873e-09 -1.273e-24 -4.58135e-09)
(2.99251e-09 0 -4.60321e-09)
(3.08375e-09 1.2806e-24 -4.62434e-09)
(3.17138e-09 -1.28409e-24 -4.64446e-09)
(3.25409e-09 4.96422e-26 -4.66324e-09)
(3.33028e-09 5.1195e-26 -4.68031e-09)
(3.39816e-09 5.28638e-26 -4.69532e-09)
(3.45566e-09 1.29594e-24 -4.70788e-09)
(3.50053e-09 2.53985e-24 -4.71766e-09)
(3.53032e-09 0 -4.72437e-09)
(3.54236e-09 -6.14551e-26 -4.72783e-09)
(3.53379e-09 0 -4.72807e-09)
(3.50169e-09 -1.23441e-24 -4.72566e-09)
(3.44317e-09 1.30044e-24 -4.72229e-09)
(3.35522e-09 7.66001e-26 -4.72169e-09)
(3.2323e-09 8.24225e-26 -4.73065e-09)
(3.05448e-09 8.95825e-26 -4.75658e-09)
(2.76563e-09 -1.15974e-24 -4.78138e-09)
(2.36096e-09 0 -4.71477e-09)
(1.917e-09 1.05294e-24 -4.74758e-09)
(1.23069e-09 -9.55386e-25 -4.80311e-09)
(1.21319e-09 1.87233e-25 -3.80059e-09)
(1.61966e-09 2.43553e-25 -3.51249e-09)
(4.2223e-09 4.84731e-25 1.76398e-08)
(-3.34509e-10 0 -3.32474e-09)
(3.55706e-09 0 -4.21741e-09)
(2.6891e-09 0 -4.10315e-09)
(1.93379e-09 0 -4.8158e-09)
(1.60157e-09 0 -5.98424e-09)
(4.58069e-08 0 -9.44616e-09)
(1.00475e-09 0 -5.2724e-09)
(5.15509e-10 -2.0614e-26 -4.85593e-09)
(7.43595e-10 0 -4.66877e-09)
(9.24629e-10 2.34736e-26 -4.59363e-09)
(1.07217e-09 1.18518e-24 -4.56947e-09)
(1.20123e-09 0 -4.56953e-09)
(1.32051e-09 0 -4.58152e-09)
(1.43418e-09 0 -4.59936e-09)
(1.54404e-09 0 -4.61998e-09)
(1.65082e-09 0 -4.64176e-09)
(1.75487e-09 0 -4.66393e-09)
(1.85641e-09 0 -4.68611e-09)
(1.9557e-09 0 -4.70819e-09)
(2.05306e-09 0 -4.73015e-09)
(2.14883e-09 -3.4885e-26 -4.75202e-09)
(2.24335e-09 0 -4.77386e-09)
(2.33689e-09 0 -4.79568e-09)
(2.42964e-09 0 -4.81749e-09)
(2.52162e-09 0 -4.83924e-09)
(2.61271e-09 -1.2841e-24 -4.86083e-09)
(2.70258e-09 1.24705e-24 -4.88212e-09)
(2.79068e-09 0 -4.90293e-09)
(2.87624e-09 -1.25291e-24 -4.92302e-09)
(2.95824e-09 1.25549e-24 -4.94209e-09)
(3.03539e-09 4.65858e-26 -4.95983e-09)
(3.1062e-09 4.80333e-26 -4.97589e-09)
(3.1689e-09 4.95871e-26 -4.9899e-09)
(3.22151e-09 5.12751e-26 -5.00151e-09)
(3.26186e-09 -1.26431e-24 -5.01039e-09)
(3.28756e-09 1.32012e-24 -5.01626e-09)
(3.29603e-09 -1.37998e-24 -5.01895e-09)
(3.28447e-09 0 -5.0185e-09)
(3.24998e-09 0 -5.01544e-09)
(3.18966e-09 -2.58282e-24 -5.01139e-09)
(3.10043e-09 -1.25146e-24 -5.0099e-09)
(2.97693e-09 7.67632e-26 -5.01737e-09)
(2.8015e-09 8.32473e-26 -5.04086e-09)
(2.52542e-09 1.29463e-24 -5.06496e-09)
(2.13629e-09 -1.27031e-24 -5.00673e-09)
(1.70865e-09 0 -5.03095e-09)
(1.10345e-09 1.16856e-24 -5.06465e-09)
(1.05228e-09 -9.00958e-25 -4.25252e-09)
(1.341e-09 2.09576e-25 -4.22576e-09)
(1.45227e-10 2.916e-25 -2.91503e-09)
(9.41309e-09 0 4.5047e-08)
(3.55022e-09 0 -4.06938e-09)
(2.61028e-09 0 -4.35267e-09)
(1.78271e-09 0 -5.12553e-09)
(1.33189e-09 0 -6.25271e-09)
(4.55982e-08 0 -9.68099e-09)
(9.19859e-10 0 -5.61552e-09)
(4.58883e-10 -1.915e-26 -5.19357e-09)
(6.64568e-10 0 -4.99634e-09)
(8.32264e-10 2.19185e-26 -4.91383e-09)
(9.71089e-10 -1.17471e-24 -4.88517e-09)
(1.09354e-09 1.20713e-24 -4.88245e-09)
(1.20716e-09 0 -4.89257e-09)
(1.31562e-09 0 -4.90903e-09)
(1.42051e-09 0 -4.92851e-09)
(1.52245e-09 0 -4.94928e-09)
(1.6217e-09 0 -4.9705e-09)
(1.71848e-09 0 -4.99177e-09)
(1.81303e-09 0 -5.01296e-09)
(1.90563e-09 0 -5.03402e-09)
(1.99662e-09 -3.27652e-26 -5.05501e-09)
(2.08631e-09 0 -5.07595e-09)
(2.17499e-09 0 -5.09687e-09)
(2.26281e-09 0 -5.11776e-09)
(2.34981e-09 0 -5.13858e-09)
(2.43586e-09 1.26154e-24 -5.15923e-09)
(2.52066e-09 0 -5.17958e-09)
(2.60368e-09 0 -5.19944e-09)
(2.68417e-09 0 -5.21858e-09)
(2.76114e-09 0 -5.23671e-09)
(2.83339e-09 -1.27757e-24 -5.25351e-09)
(2.89945e-09 -2.60541e-24 -5.26866e-09)
(2.95762e-09 -1.28249e-24 -5.28179e-09)
(3.006e-09 4.81472e-26 -5.29256e-09)
(3.04248e-09 1.33623e-24 -5.30065e-09)
(3.06476e-09 -1.28773e-24 -5.3058e-09)
(3.07033e-09 2.5772e-24 -5.30785e-09)
(3.05646e-09 -1.34524e-24 -5.30682e-09)
(3.02032e-09 1.34727e-24 -5.30322e-09)
(2.95898e-09 2.63395e-24 -5.2986e-09)
(2.86935e-09 0 -5.29631e-09)
(2.74626e-09 7.16756e-26 -5.30236e-09)
(2.57407e-09 7.75861e-26 -5.3235e-09)
(2.31045e-09 -1.24321e-24 -5.34683e-09)
(1.937e-09 -9.46482e-26 -5.29701e-09)
(1.52747e-09 0 -5.31073e-09)
(9.90281e-10 1.24345e-25 -5.32492e-09)
(9.16827e-10 0 -4.65147e-09)
(1.13293e-09 1.84805e-25 -4.65461e-09)
(1.10899e-09 2.42228e-25 -4.20479e-09)
(3.68312e-09 4.85171e-25 1.6734e-08)
(-9.5237e-10 0 -3.89605e-09)
(2.49437e-09 0 -4.58537e-09)
(1.63417e-09 0 -5.42649e-09)
(1.0732e-09 0 -6.49827e-09)
(4.53869e-08 0 -9.94472e-09)
(8.40372e-10 0 -5.95036e-09)
(4.0625e-10 -1.77725e-26 -5.52396e-09)
(5.90738e-10 0 -5.31803e-09)
(7.45593e-10 2.04545e-26 -5.22891e-09)
(8.76051e-10 0 -5.19612e-09)
(9.92216e-10 2.24992e-26 -5.19083e-09)
(1.10053e-09 0 -5.19921e-09)
(1.20417e-09 0 -5.21437e-09)
(1.30446e-09 0 -5.23278e-09)
(1.40193e-09 0 -5.25262e-09)
(1.4968e-09 0 -5.27296e-09)
(1.58922e-09 0 -5.29339e-09)
(1.67942e-09 0 -5.31375e-09)
(1.76768e-09 0 -5.33399e-09)
(1.85432e-09 -3.07863e-26 -5.35415e-09)
(1.93963e-09 0 -5.37426e-09)
(2.02388e-09 0 -5.39434e-09)
(2.10724e-09 0 -5.41439e-09)
(2.18973e-09 0 -5.43436e-09)
(2.27124e-09 0 -5.45415e-09)
(2.35147e-09 0 -5.47364e-09)
(2.42991e-09 -1.32472e-24 -5.49263e-09)
(2.50585e-09 1.32936e-24 -5.5109e-09)
(2.57834e-09 0 -5.52817e-09)
(2.64622e-09 -1.33825e-24 -5.54413e-09)
(2.70807e-09 1.3001e-24 -5.55846e-09)
(2.76226e-09 1.3467e-24 -5.57081e-09)
(2.80695e-09 4.52634e-26 -5.58084e-09)
(2.84011e-09 -1.3079e-24 -5.58825e-09)
(2.85951e-09 0 -5.59278e-09)
(2.86272e-09 -1.36234e-24 -5.59427e-09)
(2.8471e-09 1.31272e-24 -5.59276e-09)
(2.80984e-09 5.57221e-26 -5.58873e-09)
(2.74808e-09 -2.68306e-24 -5.58363e-09)
(2.65869e-09 -1.37203e-24 -5.58062e-09)
(2.53674e-09 -1.30417e-24 -5.58537e-09)
(2.3683e-09 7.24943e-26 -5.60427e-09)
(2.11661e-09 1.35955e-24 -5.62669e-09)
(1.75868e-09 2.60125e-24 -5.58513e-09)
(1.36804e-09 0 -5.58774e-09)
(8.8812e-10 1.1442e-25 -5.58527e-09)
(7.99826e-10 0 -5.01841e-09)
(9.56961e-10 1.65462e-25 -5.01963e-09)
(9.18978e-10 -7.31721e-25 -4.87219e-09)
(-2.20434e-10 -3.83166e-25 -3.49353e-09)
(7.49975e-09 0 3.77195e-08)
(2.45075e-09 0 -4.44835e-09)
(1.48891e-09 0 -5.71701e-09)
(8.23749e-10 0 -6.72073e-09)
(4.51711e-08 0 -1.02355e-08)
(7.65788e-10 0 -6.27731e-09)
(3.57184e-10 -1.64744e-26 -5.84735e-09)
(5.21601e-10 0 -5.63397e-09)
(6.64109e-10 1.9074e-26 -5.53893e-09)
(7.86527e-10 0 -5.50237e-09)
(8.96721e-10 2.10403e-26 -5.49468e-09)
(1.00005e-09 0 -5.50145e-09)
(1.09919e-09 0 -5.51541e-09)
(1.19523e-09 0 -5.53283e-09)
(1.28858e-09 0 -5.55179e-09)
(1.3794e-09 0 -5.57132e-09)
(1.46782e-09 0 -5.59097e-09)
(1.55404e-09 0 -5.61055e-09)
(1.63833e-09 0 -5.63003e-09)
(1.72099e-09 -2.89346e-26 -5.64943e-09)
(1.8023e-09 0 -5.66877e-09)
(1.88252e-09 0 -5.68808e-09)
(1.96181e-09 0 -5.70734e-09)
(2.04021e-09 0 -5.72652e-09)
(2.1176e-09 -1.33074e-24 -5.74552e-09)
(2.19369e-09 -1.33592e-24 -5.76421e-09)
(2.26801e-09 1.30545e-24 -5.7824e-09)
(2.33985e-09 3.65321e-26 -5.79988e-09)
(2.40832e-09 -1.3506e-24 -5.81637e-09)
(2.47229e-09 1.31652e-24 -5.83157e-09)
(2.53039e-09 0 -5.84517e-09)
(2.58106e-09 4.12119e-26 -5.85681e-09)
(2.62253e-09 4.2596e-26 -5.86619e-09)
(2.65282e-09 1.37322e-24 -5.873e-09)
(2.66979e-09 0 -5.877e-09)
(2.67108e-09 2.71597e-24 -5.87804e-09)
(2.65412e-09 0 -5.87613e-09)
(2.61619e-09 -1.33734e-24 -5.87175e-09)
(2.55444e-09 1.33766e-24 -5.86624e-09)
(2.46577e-09 2.73179e-24 -5.86261e-09)
(2.34546e-09 0 -5.86616e-09)
(2.18109e-09 6.78885e-26 -5.88294e-09)
(1.94067e-09 -1.31513e-24 -5.90433e-09)
(1.59798e-09 8.2007e-26 -5.87057e-09)
(1.22637e-09 0 -5.86235e-09)
(7.94869e-10 -1.21619e-24 -5.846e-09)
(6.968e-10 1.26408e-24 -5.36341e-09)
(8.10089e-10 1.49764e-25 -5.35472e-09)
(7.7116e-10 0 -5.28088e-09)
(6.3591e-10 8.29938e-25 -4.76935e-09)
(3.17161e-09 0 1.48963e-08)
(-1.32232e-09 0 -4.26842e-09)
(1.31538e-09 0 -5.99804e-09)
(5.81807e-10 0 -6.91951e-09)
(4.49488e-08 0 -1.05518e-08)
(6.95669e-10 0 -6.59673e-09)
(3.11313e-10 1.19108e-24 -6.164e-09)
(4.56714e-10 0 -5.94425e-09)
(5.87361e-10 1.77702e-26 -5.84396e-09)
(7.02054e-10 0 -5.80396e-09)
(8.06565e-10 -1.22877e-24 -5.79407e-09)
(9.05202e-10 0 -5.79933e-09)
(1.00013e-09 0 -5.81217e-09)
(1.09222e-09 0 -5.82867e-09)
(1.18176e-09 0 -5.84681e-09)
(1.26885e-09 0 -5.86558e-09)
(1.35358e-09 0 -5.8845e-09)
(1.43615e-09 0 -5.90337e-09)
(1.51679e-09 0 -5.92214e-09)
(1.5958e-09 -2.71985e-26 -5.94082e-09)
(1.67345e-09 0 -5.95945e-09)
(1.74999e-09 0 -5.97804e-09)
(1.82558e-09 0 -5.99658e-09)
(1.90024e-09 0 -6.01503e-09)
(1.97388e-09 -3.15543e-26 -6.03329e-09)
(2.04622e-09 -3.24763e-26 -6.05124e-09)
(2.11679e-09 0 -6.0687e-09)
(2.18493e-09 -1.32813e-24 -6.08545e-09)
(2.24977e-09 1.33211e-24 -6.10122e-09)
(2.31023e-09 -1.37244e-24 -6.11574e-09)
(2.36499e-09 0 -6.12867e-09)
(2.41254e-09 -1.34328e-24 -6.13969e-09)
(2.45116e-09 4.01217e-26 -6.14849e-09)
(2.47897e-09 4.15487e-26 -6.15477e-09)
(2.49387e-09 0 -6.15832e-09)
(2.49359e-09 -1.35629e-24 -6.15896e-09)
(2.47565e-09 1.40589e-24 -6.15674e-09)
(2.43737e-09 -1.41039e-24 -6.15208e-09)
(2.37597e-09 0 -6.14625e-09)
(2.28837e-09 -1.3627e-24 -6.14207e-09)
(2.17006e-09 -1.42015e-24 -6.14451e-09)
(2.00991e-09 6.37014e-26 -6.15929e-09)
(1.78007e-09 0 -6.17953e-09)
(1.45227e-09 7.66544e-26 -6.15286e-09)
(1.09939e-09 1.39321e-24 -6.1347e-09)
(7.09014e-10 1.36451e-24 -6.10695e-09)
(6.04668e-10 -1.20093e-24 -5.69227e-09)
(6.84595e-10 1.36679e-25 -5.67317e-09)
(6.41251e-10 1.12977e-24 -5.63082e-09)
(5.25725e-10 -7.41118e-25 -5.41941e-09)
(-3.66235e-10 6.62723e-25 -3.76511e-09)
(4.51166e-09 0 2.46385e-08)
(1.19025e-09 0 -6.03729e-09)
(3.4655e-10 0 -7.09174e-09)
(4.47182e-08 0 -1.08928e-08)
(6.29628e-10 0 -6.90893e-09)
(2.68313e-10 -1.22149e-24 -6.47413e-09)
(3.95688e-10 0 -6.249e-09)
(5.14947e-10 1.65369e-26 -6.14406e-09)
(6.22219e-10 0 -6.10094e-09)
(7.21314e-10 1.2634e-24 -6.08902e-09)
(8.15519e-10 0 -6.09289e-09)
(9.06511e-10 0 -6.10468e-09)
(9.94924e-10 0 -6.12032e-09)
(1.08092e-09 0 -6.13771e-09)
(1.16456e-09 0 -6.15577e-09)
(1.24589e-09 0 -6.174e-09)
(1.32509e-09 0 -6.1922e-09)
(1.40237e-09 0 -6.21031e-09)
(1.47802e-09 -2.55674e-26 -6.22833e-09)
(1.55232e-09 0 -6.2463e-09)
(1.62548e-09 0 -6.26421e-09)
(1.69768e-09 0 -6.28208e-09)
(1.76894e-09 0 -6.29985e-09)
(1.83915e-09 -2.9711e-26 -6.31743e-09)
(1.90807e-09 1.33827e-24 -6.33469e-09)
(1.97523e-09 -1.37426e-24 -6.35147e-09)
(2.04002e-09 1.37955e-24 -6.36755e-09)
(2.10158e-09 0 -6.38267e-09)
(2.15886e-09 -3.43858e-26 -6.39655e-09)
(2.21062e-09 0 -6.40888e-09)
(2.25539e-09 0 -6.41934e-09)
(2.2915e-09 3.78203e-26 -6.42762e-09)
(2.31714e-09 3.91658e-26 -6.43345e-09)
(2.33028e-09 1.41536e-24 -6.4366e-09)
(2.32872e-09 -1.42056e-24 -6.43693e-09)
(2.31007e-09 -2.80729e-24 -6.43445e-09)
(2.27171e-09 -4.64343e-26 -6.42957e-09)
(2.21091e-09 -1.43579e-24 -6.42348e-09)
(2.12463e-09 -1.44018e-24 -6.41883e-09)
(2.00856e-09 1.38805e-24 -6.42026e-09)
(1.85272e-09 5.98777e-26 -6.43317e-09)
(1.63276e-09 1.44459e-24 -6.45214e-09)
(1.31945e-09 7.18198e-26 -6.43168e-09)
(9.84699e-10 8.04389e-26 -6.4048e-09)
(6.29424e-10 9.14894e-26 -6.36785e-09)
(5.21258e-10 0 -6.0086e-09)
(5.75395e-10 1.25555e-25 -5.9806e-09)
(5.29981e-10 1.50977e-25 -5.95291e-09)
(4.27394e-10 0 -5.82596e-09)
(1.9809e-10 -5.68095e-25 -5.21495e-09)
(2.45242e-09 0 1.21592e-08)
(-1.42507e-09 0 -6.02362e-09)
(9.67659e-11 0 -7.23554e-09)
(4.44773e-08 0 -1.12576e-08)
(5.67323e-10 0 -7.21421e-09)
(2.27899e-10 -1.29951e-26 -6.77794e-09)
(3.38175e-10 0 -6.54831e-09)
(4.4651e-10 1.53688e-26 -6.4393e-09)
(5.46652e-10 0 -6.39337e-09)
(6.40579e-10 1.71317e-26 -6.37959e-09)
(7.30596e-10 0 -6.38217e-09)
(8.17895e-10 0 -6.39299e-09)
(9.02874e-10 0 -6.40783e-09)
(9.85585e-10 0 -6.4245e-09)
(1.06601e-09 0 -6.4419e-09)
(1.1442e-09 0 -6.45949e-09)
(1.22028e-09 0 -6.47707e-09)
(1.29446e-09 0 -6.49456e-09)
(1.36703e-09 -2.40322e-26 -6.51196e-09)
(1.43823e-09 0 -6.5293e-09)
(1.50829e-09 0 -6.54659e-09)
(1.57737e-09 0 -6.56383e-09)
(1.64551e-09 0 -6.58096e-09)