/*--------------------------------*- C++ -*----------------------------------*\
| =========                 |                                                 |
| \\      /  F ield         | OpenFOAM: The Open Source CFD Toolbox           |
|  \\    /   O peration     | Version:  v1912                                 |
|   \\  /    A nd           | Website:  www.openfoam.com                      |
|    \\/     M anipulation  |                                                 |
\*---------------------------------------------------------------------------*/
FoamFile
{
    version     2.0;
    format      ascii;
    class       volScalarField;
    location    "31536000";
    object      err;
}
// * * * * * * * * * * * * * * * * * * * * * * * * * * * * * * * * * * * * * //

dimensions      [0 1 0 0 0 0 0];


internalField   nonuniform List<scalar> 
4250
(
4.01675e-09
2.93767e-10
1.17382e-10
3.58966e-11
2.81943e-11
1.42109e-11
1.12266e-11
1.08855e-11
1.06013e-11
1.04592e-11
1.03455e-11
1.02887e-11
1.02602e-11
1.02318e-11
1.02034e-11
1.02034e-11
1.02602e-11
1.04308e-11
1.06013e-11
1.14824e-11
1.7252e-11
3.85114e-11
9.25979e-11
2.35417e-10
1.28426e-09
1.26944e-08
-5.18006e-09
1.63572e-09
1.82147e-09
1.8618e-09
1.92751e-09
1.99375e-09
2.0233e-09
2.05956e-09
2.08335e-09
2.16966e-09
2.2525e-09
2.36357e-09
2.58546e-09
2.78651e-09
3.04772e-09
3.3852e-09
3.90353e-09
4.60522e-09
5.30536e-09
6.47873e-09
7.73452e-09
9.45449e-09
1.0895e-08
4.55295e-07
1.56386e-08
1.36825e-09
5.47885e-10
1.53705e-10
1.29205e-10
5.65024e-11
4.02451e-11
3.91083e-11
3.83125e-11
3.79146e-11
3.75167e-11
3.72609e-11
3.71188e-11
3.69766e-11
3.69198e-11
3.69766e-11
3.7204e-11
3.76303e-11
3.83693e-11
4.09273e-11
6.84395e-11
1.63055e-10
3.84745e-10
8.65157e-10
3.9374e-09
1.13745e-08
3.20948e-09
1.43239e-09
1.65789e-09
1.81622e-09
1.81007e-09
1.89546e-09
1.98779e-09
2.09807e-09
2.27671e-09
2.38564e-09
2.50778e-09
2.72567e-09
2.90644e-09
3.19756e-09
3.53789e-09
3.93596e-09
4.32787e-09
4.79954e-09
5.53203e-09
6.04783e-09
6.97887e-09
7.5392e-09
9.42998e-09
4.30178e-07
2.50713e-08
4.88441e-09
2.28746e-09
7.27425e-10
6.12147e-10
2.62901e-10
1.83661e-10
1.79455e-10
1.77238e-10
1.75618e-10
1.74538e-10
1.73685e-10
1.73259e-10
1.72946e-10
1.72662e-10
1.7269e-10
1.73003e-10
1.74083e-10
1.76385e-10
1.8494e-10
3.05448e-10
7.24498e-10
1.53258e-09
3.54333e-09
1.36689e-08
3.13165e-08
4.12434e-09
1.05941e-09
1.31409e-09
1.33709e-09
1.51469e-09
1.53269e-09
1.60734e-09
1.74033e-09
1.76105e-09
1.90357e-09
2.17657e-09
2.35745e-09
2.49067e-09
2.73616e-09
3.02316e-09
3.46945e-09
3.84583e-09
4.20382e-09
4.87359e-09
5.43624e-09
6.02082e-09
7.98884e-09
9.78645e-09
4.22775e-07
1.37004e-09
9.57348e-09
5.74815e-09
3.08154e-09
2.28579e-09
1.06846e-09
8.05244e-10
7.86201e-10
7.75628e-10
7.68011e-10
7.62668e-10
7.59087e-10
7.56586e-10
7.54625e-10
7.53204e-10
7.52522e-10
7.53346e-10
7.57211e-10
7.66931e-10
7.96803e-10
1.16603e-09
2.66897e-09
4.37595e-09
1.17201e-08
1.62531e-08
3.58497e-10
3.4679e-09
7.25482e-10
9.7186e-10
1.05069e-09
1.07128e-09
1.15795e-09
1.25086e-09
1.20774e-09
1.38859e-09
1.49311e-09
1.51835e-09
1.64098e-09
1.95385e-09
2.14956e-09
2.38541e-09
2.55751e-09
3.00108e-09
3.52565e-09
3.80994e-09
4.32875e-09
5.81049e-09
7.6779e-09
8.07069e-09
4.13254e-07
2.01405e-09
1.91081e-08
4.52468e-09
9.19022e-09
5.24196e-09
3.56277e-09
3.20384e-09
3.06761e-09
2.97629e-09
2.91405e-09
2.87287e-09
2.84592e-09
2.82674e-09
2.81219e-09
2.80104e-09
2.79516e-09
2.79991e-09
2.82793e-09
2.90407e-09
3.07341e-09
3.56721e-09
6.3645e-09
8.14845e-09
9.14754e-09
1.47038e-09
1.09225e-10
1.85121e-09
5.79741e-10
6.99393e-10
7.71223e-10
7.88808e-10
8.14151e-10
8.46703e-10
9.87516e-10
1.04129e-09
1.06967e-09
1.17962e-09
1.35893e-09
1.40452e-09
1.55379e-09
1.84746e-09
2.10842e-09
2.36847e-09
2.67957e-09
2.94903e-09
3.62077e-09
5.36419e-09
5.90935e-09
5.99142e-09
3.9517e-07
1.22032e-09
3.47673e-09
1.46814e-08
4.81462e-09
3.97222e-09
9.12152e-09
9.25101e-09
8.4024e-09
7.84644e-09
7.49148e-09
7.26754e-09
7.12481e-09
7.02579e-09
6.95189e-09
6.8969e-09
6.86728e-09
6.89232e-09
7.03719e-09
7.44848e-09
8.3821e-09
8.34535e-09
3.13793e-09
1.08718e-08
4.11275e-09
2.89072e-09
6.05318e-10
1.49671e-09
3.50912e-10
5.24085e-10
6.32871e-10
7.04355e-10
6.6808e-10
6.88571e-10
7.14717e-10
6.81804e-10
8.75151e-10
9.17544e-10
9.15708e-10
1.00553e-09
1.22798e-09
1.39452e-09
1.65951e-09
1.79902e-09
2.1331e-09
2.29531e-09
3.2045e-09
3.83134e-09
1.46858e-09
-3.12631e-09
3.73906e-07
1.43692e-09
2.36722e-09
4.42763e-09
7.52271e-09
1.11939e-08
6.97878e-09
4.68454e-09
3.75131e-09
3.3203e-09
3.10217e-09
2.98942e-09
2.92329e-09
2.87932e-09
2.84908e-09
2.8258e-09
2.80053e-09
2.79299e-09
2.81858e-09
2.99195e-09
3.6664e-09
6.04253e-09
9.21875e-09
3.54252e-09
3.98701e-09
2.69776e-09
1.11418e-09
1.4517e-09
4.03332e-10
4.60147e-10
5.24898e-10
4.87731e-10
6.02868e-10
6.16653e-10
6.36163e-10
7.27489e-10
5.54184e-10
7.50964e-10
8.12089e-10
9.95803e-10
1.01516e-09
1.03766e-09
1.34837e-09
1.58555e-09
1.39315e-09
1.66081e-09
2.01142e-09
1.93241e-09
6.77825e-10
-4.1647e-09
3.62739e-07
1.29158e-09
2.01283e-09
2.73091e-09
5.0271e-09
4.76879e-09
4.7358e-09
5.49925e-09
6.20173e-09
6.63339e-09
6.92623e-09
7.08896e-09
7.18585e-09
7.24721e-09
7.27759e-09
7.28009e-09
7.23831e-09
7.12625e-09
6.90594e-09
6.43958e-09
5.55377e-09
4.62859e-09
5.34817e-09
2.93092e-09
3.01282e-09
2.29166e-09
1.41176e-09
1.3994e-09
3.01036e-10
4.32828e-10
4.43531e-10
5.09308e-10
4.59377e-10
4.62234e-10
4.69758e-10
4.10858e-10
6.52682e-10
5.37161e-10
6.73934e-10
6.47294e-10
8.39962e-10
1.06849e-09
8.94539e-10
8.22416e-10
6.29488e-10
1.1238e-09
1.52107e-09
1.36292e-09
-2.63809e-09
-4.11216e-09
3.58087e-07
1.0732e-09
1.97802e-09
2.0182e-09
3.25786e-09
3.0802e-09
3.74125e-09
4.45448e-09
4.8796e-09
5.1056e-09
5.19297e-09
5.23519e-09
5.2717e-09
5.28628e-09
5.297e-09
5.28105e-09
5.29617e-09
5.27199e-09
5.25051e-09
5.13268e-09
4.71937e-09
3.80849e-09
3.31431e-09
2.37235e-09
2.31424e-09
1.84609e-09
1.66949e-09
1.43003e-09
3.07747e-10
3.44939e-10
4.58282e-10
4.11666e-10
4.08241e-10
4.11397e-10
4.06516e-10
4.85615e-10
4.3287e-10
4.51082e-10
4.91725e-10
6.4488e-10
7.20127e-10
7.77896e-10
8.50214e-10
5.7948e-10
2.17625e-10
1.37654e-10
8.19623e-10
-3.27051e-10
-4.89751e-09
-4.35067e-09
3.50196e-07
8.46178e-10
1.87067e-09
1.83491e-09
2.32843e-09
2.28111e-09
2.82002e-09
3.24449e-09
3.40167e-09
3.46269e-09
3.47269e-09
3.4789e-09
3.47683e-09
3.4629e-09
3.46067e-09
3.49374e-09
3.47039e-09
3.48797e-09
3.48011e-09
3.49276e-09
3.4108e-09
2.96491e-09
2.33378e-09
2.07441e-09
1.83996e-09
1.50744e-09
1.64919e-09
1.36278e-09
2.92145e-10
2.96122e-10
3.55092e-10
3.55986e-10
4.1319e-10
4.65029e-10
4.04445e-10
4.11032e-10
3.36633e-10
5.32592e-10
4.69369e-10
5.10011e-10
5.40238e-10
3.68356e-10
2.09353e-10
-4.2172e-10
-2.14183e-10
8.65529e-11
-4.45919e-11
-3.34833e-09
-3.46214e-09
-2.92547e-09
3.45545e-07
6.71374e-10
1.69859e-09
1.72783e-09
1.82206e-09
1.96943e-09
2.36549e-09
2.4862e-09
2.49306e-09
2.46983e-09
2.44199e-09
2.46571e-09
2.45106e-09
2.44078e-09
2.45995e-09
2.42426e-09
2.45282e-09
2.46242e-09
2.4653e-09
2.49828e-09
2.52717e-09
2.39236e-09
1.88189e-09
1.84932e-09
1.53585e-09
1.26454e-09
1.65028e-09
1.46919e-09
3.44695e-10
3.56168e-10
4.15985e-10
4.23608e-10
4.17371e-10
2.73847e-10
4.02541e-10
4.02314e-10
4.02744e-10
2.28487e-10
4.36742e-10
3.30503e-10
2.93599e-10
2.86398e-10
-2.3764e-10
-4.38542e-10
-5.95236e-10
-2.66464e-10
-3.17606e-10
-1.55597e-09
-3.55229e-09
-1.55459e-09
3.37128e-07
5.76566e-10
1.54866e-09
1.67839e-09
1.57442e-09
1.81158e-09
2.04437e-09
2.02864e-09
1.99252e-09
1.97167e-09
1.98184e-09
1.94653e-09
1.92732e-09
1.97538e-09
1.93283e-09
1.94436e-09
1.94889e-09
1.95553e-09
1.98922e-09
1.97753e-09
2.04083e-09
2.12901e-09
1.78817e-09
1.70653e-09
1.38323e-09
1.14979e-09
1.49193e-09
1.38037e-09
3.31882e-10
3.05143e-10
2.95728e-10
4.12153e-10
2.77149e-10
4.00969e-10
2.36677e-10
2.19657e-10
3.86055e-10
3.8019e-10
1.60992e-10
3.61082e-10
1.1999e-10
-1.77236e-10
-8.37327e-10
-1.33578e-09
-9.7196e-10
-7.5716e-10
-1.10471e-09
-3.58913e-09
-2.16124e-09
-2.52243e-09
3.35598e-07
5.78325e-10
1.48019e-09
1.61718e-09
1.51161e-09
1.72886e-09
1.81204e-09
1.77495e-09
1.74541e-09
1.69542e-09
1.72685e-09
1.71576e-09
1.75154e-09
1.72048e-09
1.75611e-09
1.76517e-09
1.75319e-09
1.75537e-09
1.73799e-09
1.7686e-09
1.80008e-09
1.8287e-09
1.65916e-09
1.52237e-09
1.24099e-09
1.04911e-09
1.43519e-09
1.37085e-09
2.97042e-10
3.0867e-10
3.87751e-10
2.4233e-10
3.37913e-10
2.4222e-10
2.93702e-10
2.7701e-10
1.67677e-10
2.36968e-10
3.10753e-10
-1.18194e-11
6.57239e-11
-4.28457e-10
-9.98236e-10
-1.10166e-09
-7.0471e-10
-8.99045e-10
-7.21004e-10
-4.96372e-09
-2.79602e-09
5.1539e-10
3.29058e-07
5.21592e-10
1.31026e-09
1.44606e-09
1.34884e-09
1.58592e-09
1.59343e-09
1.5813e-09
1.58852e-09
1.61666e-09
1.5807e-09
1.62576e-09
1.58582e-09
1.60817e-09
1.61271e-09
1.60853e-09
1.63953e-09
1.63931e-09
1.60071e-09
1.58501e-09
1.60499e-09
1.68082e-09
1.6236e-09
1.42917e-09
1.23677e-09
1.10645e-09
1.23873e-09
1.47048e-09
4.32857e-10
3.13436e-10
3.59204e-10
4.14891e-10
3.32007e-10
3.0314e-10
2.77106e-10
2.49837e-10
1.16451e-10
1.82641e-10
-1.21196e-11
1.02805e-10
-4.69082e-10
-1.14628e-09
-1.41185e-09
-1.11133e-09
-1.00247e-09
-1.13187e-09
-2.08256e-09
1.76432e-11
-1.3029e-09
-3.11925e-09
3.20524e-07
5.28445e-10
1.23761e-09
1.42204e-09
1.40855e-09
1.46267e-09
1.507e-09
1.49129e-09
1.48876e-09
1.49608e-09
1.50142e-09
1.51466e-09
1.56091e-09
1.56736e-09
1.52199e-09
1.58251e-09
1.52939e-09
1.52893e-09
1.58352e-09
1.55281e-09
1.49621e-09
1.5109e-09
1.49814e-09
1.24725e-09
1.19563e-09
1.08425e-09
1.20999e-09
1.29676e-09
2.88333e-10
2.49383e-10
2.48939e-10
2.78702e-10
3.26589e-10
2.91864e-10
2.58656e-10
2.21028e-10
2.78828e-10
-1.52722e-12
1.41342e-10
-3.40152e-10
-6.19925e-10
-1.05854e-09
-1.73785e-09
-1.36553e-09
-1.27368e-09
-1.13086e-09
-2.53644e-09
-3.87857e-09
-2.56557e-09
1.10513e-09
3.18755e-07
6.61068e-10
1.17727e-09
1.35185e-09
1.3155e-09
1.46148e-09
1.42161e-09
1.38993e-09
1.40524e-09
1.47226e-09
1.51465e-09
1.491e-09
1.49929e-09
1.45128e-09
1.54967e-09
1.47396e-09
1.50229e-09
1.50298e-09
1.48138e-09
1.49237e-09
1.46224e-09
1.47247e-09
1.51006e-09
1.27037e-09
1.19183e-09
1.14173e-09
1.11917e-09
1.45647e-09
4.72716e-10
3.18921e-10
3.55098e-10
3.484e-10
2.36246e-10
1.91061e-10
2.21362e-10
8.74048e-11
2.10227e-11
3.97233e-11
-2.9162e-10
-3.63095e-10
-9.18746e-10
-1.59428e-09
-1.16578e-09
-1.22731e-09
-1.25831e-09
-1.66511e-09
-2.43886e-09
-2.22047e-09
2.63126e-11
-2.77724e-09
3.1147e-07
6.90076e-10
1.10417e-09
1.27735e-09
1.34881e-09
1.40043e-09
1.32033e-09
1.40868e-09
1.40036e-09
1.37114e-09
1.41963e-09
1.44022e-09
1.44597e-09
1.49351e-09
1.39801e-09
1.45936e-09
1.50232e-09
1.47758e-09
1.44829e-09
1.44594e-09
1.41779e-09
1.39651e-09
1.35998e-09
1.17865e-09
1.23411e-09
1.20778e-09
1.11968e-09
1.33593e-09
3.30383e-10
2.51585e-10
3.47667e-10
2.63243e-10
3.08521e-10
2.61842e-10
5.3507e-11
1.52905e-10
7.96017e-11
-3.25053e-11
-2.35333e-10
-6.84869e-10
-1.117e-09
-1.49729e-09
-1.36228e-09
-1.02241e-09
-1.19873e-09
-1.45835e-09
-2.0291e-09
-2.19719e-09
-1.63289e-09
-4.89708e-10
3.07913e-07
7.61766e-10
1.0372e-09
1.20227e-09
1.26188e-09
1.27919e-09
1.34697e-09
1.33257e-09
1.44717e-09
1.45596e-09
1.39425e-09
1.41563e-09
1.4191e-09
1.42143e-09
1.46943e-09
1.43151e-09
1.37005e-09
1.41946e-09
1.45111e-09
1.42645e-09
1.40829e-09
1.31158e-09
1.40261e-09
1.19658e-09
1.15143e-09
1.18026e-09
1.0943e-09
1.32467e-09
4.58004e-10
3.30714e-10
2.96902e-10
3.40429e-10
2.11307e-10
1.52113e-10
2.70334e-10
7.09832e-12
-9.21849e-11
-2.38197e-10
-4.15785e-10
-5.57817e-10
-1.34392e-09
-1.47069e-09
-1.37568e-09
-1.06127e-09
-1.11111e-09
-1.62631e-09
-3.16676e-09
-3.65455e-09
-1.6441e-09
7.77e-10
3.06495e-07
7.50864e-10
1.10452e-09
1.19094e-09
1.32897e-09
1.27872e-09
1.25809e-09
1.32915e-09
1.31412e-09
1.37768e-09
1.43262e-09
1.37414e-09
1.37578e-09
1.37715e-09
1.37835e-09
1.39882e-09
1.43102e-09
1.41196e-09
1.40095e-09
1.39065e-09
1.38567e-09
1.3351e-09
1.34155e-09
1.16859e-09
1.22042e-09
1.17517e-09
1.21361e-09
1.38592e-09
4.96558e-10
2.57844e-10
3.15088e-10
2.49385e-10
1.95795e-10
2.33571e-10
6.13785e-11
8.02745e-11
-2.74372e-11
-1.80282e-10
-4.44174e-10
-1.07603e-09
-1.24762e-09
-1.49557e-09
-1.01305e-09
-1.47163e-09
-1.63314e-09
-1.34956e-09
-2.55975e-09
1.11344e-09
2.15614e-11
-3.08066e-09
2.93578e-07
8.47953e-10
1.06355e-09
1.14214e-09
1.21521e-09
1.23955e-09
1.35952e-09
1.38099e-09
1.38487e-09
1.3282e-09
1.32927e-09
1.38138e-09
1.38111e-09
1.38147e-09
1.38219e-09
1.38368e-09
1.38605e-09
1.38919e-09
1.39437e-09
1.40172e-09
1.34634e-09
1.37131e-09
1.23898e-09
1.1362e-09
1.16801e-09
1.25165e-09
1.21661e-09
1.38744e-09
4.43961e-10
3.44764e-10
2.87641e-10
3.35145e-10
3.17421e-10
2.067e-10
2.94729e-11
5.19846e-11
-1.54877e-10
-4.01132e-10
-5.2062e-10
-1.00955e-09
-1.43785e-09
-9.57216e-10
-1.11338e-09
-1.05214e-09
-1.65959e-09
-1.61822e-09
-5.64056e-10
-1.22649e-09
-1.30845e-09
1.74072e-09
2.96513e-07
7.92081e-10
1.08443e-09
1.18292e-09
1.27507e-09
1.25068e-09
1.23906e-09
1.28011e-09
1.27185e-09
1.3964e-09
1.32602e-09
1.32523e-09
1.3236e-09
1.32347e-09
1.32391e-09
1.3252e-09
1.31289e-09
1.26378e-09
1.3214e-09
1.3477e-09
1.39326e-09
1.34536e-09
1.27249e-09
1.22978e-09
1.16433e-09
1.12129e-09
1.2671e-09
1.30864e-09
5.33431e-10
2.67595e-10
3.57589e-10
2.39083e-10
2.10891e-10
2.04015e-11
1.19777e-10
-1.04951e-10
-1.04736e-10
-3.38636e-10
-7.78843e-10
-1.2182e-09
-1.26286e-09
-1.17741e-09
-8.56069e-10
-1.18031e-09
-1.08936e-09
-1.85186e-09
-2.80928e-09
-3.50018e-09
-1.11541e-09
-1.48826e-09
2.90048e-07
8.56263e-10
1.10674e-09
1.2274e-09
1.21089e-09
1.27218e-09
1.25053e-09
1.34347e-09
1.40648e-09
1.2732e-09
1.3276e-09
1.3259e-09
1.324e-09
1.31824e-09
1.25325e-09
1.25506e-09
1.28462e-09
1.38991e-09
1.29891e-09
1.34992e-09
1.36455e-09
1.30307e-09
1.2968e-09
1.19745e-09
1.15921e-09
1.0866e-09
1.29692e-09
1.2894e-09
4.19747e-10
3.64078e-10
2.65829e-10
3.35027e-10
2.05781e-10
2.90898e-10
1.02163e-10
-1.45623e-10
-3.8867e-10
-4.00642e-10
-7.22426e-10
-1.04385e-09
-1.35974e-09
-9.08739e-10
-1.20922e-09
-9.93571e-10
-1.08462e-09
-1.62421e-09
-2.48175e-09
2.79064e-09
-1.49779e-09
-1.35535e-09
2.84462e-07
6.78309e-10
1.12571e-09
1.12711e-09
1.28004e-09
1.15196e-09
1.33914e-09
1.28561e-09
1.28295e-09
1.26792e-09
1.31361e-09
1.29754e-09
1.25858e-09
1.26845e-09
1.37554e-09
1.32215e-09
1.31252e-09
1.26759e-09
1.31939e-09
1.28328e-09
1.27284e-09
1.31615e-09
1.25021e-09
1.21969e-09
1.08143e-09
1.13578e-09
1.30268e-09
1.43004e-09
6.5806e-10
2.80286e-10
3.65545e-10
2.33031e-10
2.74971e-10
7.23976e-11
-4.21632e-11
9.56173e-11
-1.5323e-10
-4.34148e-10
-9.81307e-10
-1.03534e-09
-9.48714e-10
-1.09316e-09
-8.95604e-10
-1.04166e-09
-1.59822e-09
-1.38152e-09
-3.22675e-09
-4.17757e-09
3.09316e-11
3.56458e-11
2.78888e-07
7.94774e-10
1.05464e-09
1.18163e-09
1.15473e-09
1.31604e-09
1.28848e-09
1.30427e-09
1.28041e-09
1.33576e-09
1.24042e-09
1.26601e-09
1.26056e-09
1.25752e-09
1.23549e-09
1.34228e-09
1.27633e-09
1.2707e-09
1.28198e-09
1.28229e-09
1.37517e-09
1.36921e-09
1.1926e-09
1.15985e-09
1.23362e-09
1.13462e-09
1.2891e-09
1.25711e-09
5.13275e-10
3.84793e-10
2.68385e-10
3.41435e-10
1.58917e-10
5.64895e-11
6.9913e-11
-3.50162e-10
-3.19308e-10
-6.21727e-10
-6.15672e-10
-1.20043e-09
-7.63941e-10
-8.7468e-10
-9.46586e-10
-1.17238e-09
-1.26478e-09
-1.94161e-09
1.79616e-09
-1.15716e-09
-7.95156e-10
-1.93046e-09
2.80461e-07
7.67992e-10
1.04544e-09
1.27893e-09
1.21787e-09
1.19178e-09
1.29939e-09
1.33546e-09
1.28422e-09
1.28636e-09
1.33096e-09
1.31951e-09
1.35425e-09
1.35554e-09
1.25931e-09
1.21131e-09
1.34525e-09
1.35057e-09
1.35594e-09
1.37243e-09
1.3134e-09
1.33213e-09
1.36705e-09
1.24158e-09
1.01443e-09
1.06836e-09
1.29095e-09
1.31791e-09
5.21825e-10
2.96279e-10
3.80198e-10
2.33954e-10
2.75309e-10
1.75539e-10
-7.77782e-11
5.91063e-11
-2.11919e-10
-6.52022e-10
-9.93827e-10
-7.54395e-10
-9.45265e-10
-4.07549e-10
-5.6197e-10
-9.98977e-10
-1.13724e-09
-1.35356e-09
-3.8024e-09
-1.51651e-09
-1.67962e-09
1.22929e-09
2.72581e-07
5.6521e-10
1.12403e-09
1.1704e-09
1.16972e-09
1.28611e-09
1.22419e-09
1.2411e-09
1.21082e-09
1.29987e-09
1.21775e-09
1.22139e-09
1.22423e-09
1.22589e-09
1.38436e-09
1.30222e-09
1.24278e-09
1.26465e-09
1.24447e-09
1.23848e-09
1.23909e-09
1.31123e-09
1.24403e-09
1.25353e-09
1.215e-09
1.093e-09
1.27974e-09
1.20906e-09
6.351e-10
4.1316e-10
2.78246e-10
3.56313e-10
1.55625e-10
1.79037e-10
5.36167e-11
-2.50279e-10
-4.60739e-10
-5.07803e-10
-8.51296e-10
-1.13883e-09
-6.86663e-10
-9.19733e-10
-8.99614e-10
-6.80747e-10
-8.5875e-10
-1.05789e-09
-2.54178e-09
-1.38252e-10
-4.63515e-10
-1.82854e-09
2.70482e-07
7.3241e-10
1.03128e-09
1.16989e-09
1.31278e-09
1.3088e-09
1.30823e-09
1.31018e-09
1.39253e-09
1.23528e-09
1.40621e-09
1.32155e-09
1.32573e-09
1.3289e-09
1.25558e-09
1.34262e-09
1.33624e-09
1.32476e-09
1.33986e-09
1.33811e-09
1.41965e-09
1.35308e-09
1.34819e-09
1.17656e-09
1.15852e-09
1.13479e-09
1.1654e-09
1.28635e-09
6.61889e-10
3.19399e-10
4.04347e-10
2.44087e-10
2.88561e-10
4.20086e-11
-9.7149e-11
-2.63232e-10
-3.05574e-10
-5.35198e-10
-7.33626e-10
-5.09161e-10
-8.42005e-10
-3.95306e-10
-6.2769e-10
-7.13291e-10
-1.23667e-09
-1.57299e-09
-9.12173e-10
-3.9798e-09
-1.03797e-09
2.47053e-10
2.5331e-07
6.62812e-10
1.11844e-09
1.26269e-09
1.14393e-09
1.23689e-09
1.324e-09
1.23869e-09
1.25272e-09
1.34449e-09
1.27333e-09
1.35777e-09
1.36194e-09
1.36459e-09
1.36663e-09
1.35168e-09
1.37209e-09
1.30103e-09
1.37698e-09
1.37459e-09
1.281e-09
1.27528e-09
1.28485e-09
1.17581e-09
1.19856e-09
1.18658e-09
1.22316e-09
1.28537e-09
5.79122e-10
4.523e-10
2.98108e-10
3.82303e-10
1.63614e-10
1.84866e-10
5.20317e-11
6.63101e-11
-4.74782e-10
-5.30151e-10
-6.43533e-10
-7.51123e-10
-4.09651e-10
-9.78115e-10
-5.15094e-10
-1.01522e-09
-9.07345e-10
-1.17842e-09
-2.39806e-09
2.57694e-09
-9.65951e-10
-1.34685e-09
2.9221e-07
7.08402e-10
1.02752e-09
1.17346e-09
1.36529e-09
1.33974e-09
1.30275e-09
1.34865e-09
1.36939e-09
1.38314e-09
1.29448e-09
1.39833e-09
1.40037e-09
1.30557e-09
1.30788e-09
1.32007e-09
1.31352e-09
1.4598e-09
1.31898e-09
1.3181e-09
1.301e-09
1.37797e-09
1.39362e-09
1.28028e-09
1.19787e-09
1.23813e-09
1.24083e-09
1.28939e-09
5.99149e-10
4.82991e-10
4.39253e-10
2.6523e-10
3.14879e-10
4.40648e-11
5.94507e-11
-4.21891e-10
-2.65759e-10
-6.89191e-10
-5.69958e-10
-3.90482e-10
-2.35147e-10
7.04917e-11
-6.32527e-10
-5.02694e-10
-7.55677e-10
-1.55743e-09
-1.55372e-09
-3.45493e-09
-1.12213e-09
-4.76475e-09
2.46328e-07
7.76092e-10
1.03162e-09
1.27624e-09
1.16694e-09
1.25889e-09
1.24962e-09
1.34323e-09
1.30941e-09
1.32301e-09
1.41872e-09
1.30163e-09
1.24746e-09
1.42712e-09
1.42824e-09
1.43136e-09
1.43388e-09
1.26679e-09
1.44146e-09
1.44344e-09
1.42971e-09
1.40984e-09
1.31847e-09
1.20934e-09
1.22595e-09
1.38469e-09
1.27204e-09
1.18615e-09
8.67022e-10
3.84675e-10
4.66092e-10
4.19567e-10
1.86189e-10
2.09077e-10
-1.04425e-10
8.83089e-11
-2.36897e-10
-4.20734e-10
-7.17406e-10
-5.8177e-10
-4.61438e-10
-4.4039e-10
-1.88286e-10
-2.64803e-10
-8.26677e-10
-8.69524e-10
-1.51283e-09
-7.57637e-10
-5.94741e-10
7.67935e-09
2.58283e-07
8.543e-10
1.0467e-09
1.18489e-09
1.36299e-09
1.37343e-09
1.34144e-09
1.30496e-09
1.44141e-09
1.34571e-09
1.35191e-09
1.41988e-09
1.53035e-09
1.35661e-09
1.35745e-09
1.36043e-09
1.3626e-09
1.55091e-09
1.37273e-09
1.37993e-09
1.47816e-09
1.23652e-09
1.33801e-09
1.34195e-09
1.24875e-09
1.20305e-09
1.31127e-09
1.3025e-09
6.66848e-10
5.39591e-10
3.51513e-10
4.48263e-10
4.3737e-10
2.04109e-10
7.46305e-11
-2.65662e-10
-3.91008e-10
-3.55949e-10
-4.00729e-10
-2.85879e-10
-1.7159e-10
-1.41404e-10
-1.52721e-10
-6.10705e-10
-3.55178e-10
-6.82027e-10
-1.18899e-09
-1.1992e-09
-3.23326e-10
-5.29149e-09
2.52727e-07
1.0512e-09
1.18829e-09
1.19365e-09
1.28326e-09
1.29123e-09
1.42563e-09
1.49337e-09
1.37337e-09
1.47732e-09
1.48029e-09
1.43274e-09
1.28398e-09
1.48082e-09
1.41108e-09
1.48431e-09
1.44457e-09
1.31214e-09
1.38771e-09
1.51049e-09
1.30402e-09
1.58142e-09
1.43031e-09
1.16868e-09
1.37974e-09
1.41932e-09
1.34973e-09
1.31702e-09
6.86708e-10
4.33078e-10
5.16038e-10
3.21751e-10
2.28279e-10
1.4906e-10
9.92673e-11
-7.2446e-11
-6.21336e-11
-4.00872e-10
-3.38926e-10
-2.14716e-10
-1.45307e-10
-4.34269e-10
-4.96919e-10
-2.03485e-10
-7.38349e-10
-9.68998e-10
-1.4586e-09
-1.39452e-09
-1.59828e-09
-1.48233e-08
2.47354e-07
8.79856e-10
1.11694e-09
1.33322e-09
1.41486e-09
1.3091e-09
1.35915e-09
1.33216e-09
1.39513e-09
1.39862e-09
1.39819e-09
1.42532e-09
1.49732e-09
1.39639e-09
1.42753e-09
1.39939e-09
1.36863e-09
1.49478e-09
1.51729e-09
1.42919e-09
1.55144e-09
1.30833e-09
1.37615e-09
1.42488e-09
1.17212e-09
1.19922e-09
1.3801e-09
1.33034e-09
9.80679e-10
7.25467e-10
5.46054e-10
5.01555e-10
5.07302e-10
2.61677e-10
-5.85714e-11
-4.60325e-11
-3.80521e-10
-2.86244e-10
-3.79574e-10
-3.80094e-10
-3.45083e-10
-6.92508e-11
-4.42186e-10
-5.46326e-10
-2.40401e-10
-4.08039e-10
-1.56301e-09
-1.79627e-09
-7.34701e-10
2.93924e-08
2.56804e-07
1.13118e-09
1.15271e-09
1.14784e-09
1.31796e-09
1.33443e-09
1.3919e-09
1.5035e-09
1.53582e-09
1.53473e-09
1.5321e-09
1.39408e-09
1.5306e-09
1.40804e-09
1.55201e-09
1.41113e-09
1.6022e-09
1.42063e-09
1.52971e-09
1.44271e-09
1.56882e-09
1.56786e-09
1.43442e-09
1.36373e-09
1.41095e-09
1.38677e-09
1.39926e-09
1.34146e-09
7.38148e-10
3.8286e-10
4.15057e-10
5.38221e-10
2.83405e-10
1.42879e-10
1.69952e-10
-2.20502e-10
-3.97517e-10
-3.05947e-10
-1.17469e-10
3.56528e-11
7.95826e-11
7.85519e-11
3.55889e-10
-8.02155e-11
-2.48385e-10
-9.11915e-10
-4.95348e-10
-1.00921e-09
-7.17247e-10
-2.08125e-08
2.41191e-07
1.00535e-09
1.32101e-09
1.50489e-09
1.35296e-09
1.49739e-09
1.42465e-09
1.4459e-09
1.44503e-09
1.44333e-09
1.33583e-09
1.55171e-09
1.31353e-09
1.55247e-09
1.32425e-09
1.55605e-09
1.3214e-09
1.56477e-09
1.37445e-09
1.58512e-09
1.48662e-09
1.4999e-09
1.45374e-09
1.53402e-09
1.3156e-09
1.30508e-09
1.40885e-09
1.3491e-09
8.83823e-10
7.67333e-10
5.99774e-10
3.97118e-10
4.95194e-10
5.65876e-10
2.16571e-10
5.56704e-11
1.23741e-10
-3.9527e-10
1.75224e-11
1.71479e-10
2.528e-10
-1.22018e-10
-1.72831e-10
4.07276e-11
1.16849e-11
2.2078e-10
-1.30547e-09
2.03715e-10
-2.16272e-09
1.01215e-08
2.4264e-07
1.16287e-09
1.09867e-09
1.22555e-09
1.35784e-09
1.42398e-09
1.58954e-09
1.46533e-09
1.46669e-09
1.46175e-09
1.60332e-09
1.46251e-09
1.58102e-09
1.46559e-09
1.58392e-09
1.46989e-09
1.59005e-09
1.47858e-09
1.58042e-09
1.49348e-09
1.48884e-09
1.53586e-09
1.5158e-09
1.32216e-09
1.33885e-09
1.30942e-09
1.41484e-09
1.20922e-09
7.87867e-10
7.01706e-10
6.33458e-10
7.9086e-10
4.3282e-10
2.2191e-10
2.65649e-10
6.37026e-11
-2.9097e-10
1.92312e-10
-2.08093e-10
2.32677e-10
-2.82701e-11
7.08697e-10
3.07933e-10
2.80722e-10
-3.61267e-10
-5.28988e-10
-7.88489e-10
-3.03805e-09
1.90834e-09
-7.39927e-09
2.39545e-07
1.00109e-09
1.35879e-09
1.38833e-09
1.39445e-09
1.4675e-09
1.50069e-09
1.62598e-09
1.4843e-09
1.48945e-09
1.52099e-09
1.49551e-09
1.6383e-09
1.50032e-09
1.61022e-09
1.50498e-09
1.51023e-09
1.51361e-09
1.51796e-09
1.5209e-09
1.65142e-09
1.64465e-09
1.51642e-09
1.61339e-09
1.37459e-09
1.35017e-09
1.42431e-09
1.50716e-09
1.0917e-09
5.48197e-10
6.27451e-10
3.82591e-10
6.06581e-10
4.66564e-10
8.99121e-11
1.68541e-10
1.14944e-11
-2.81685e-10
3.96696e-10
-7.87486e-11
3.42532e-10
-1.29142e-10
4.17201e-10
8.34344e-12
4.13022e-10
1.5519e-10
-5.83403e-10
-8.75794e-10
-1.53256e-09
3.1389e-09
2.34264e-07
1.00104e-09
1.27464e-09
1.51479e-09
1.58303e-09
1.65612e-09
1.52822e-09
1.52961e-09
1.66371e-09
1.67224e-09
1.47115e-09
1.62512e-09
1.41739e-09
1.69365e-09
1.4863e-09
1.55354e-09
1.70316e-09
1.56035e-09
1.60108e-09
1.56098e-09
1.50089e-09
1.59445e-09
1.56862e-09
1.3711e-09
1.57429e-09
1.41604e-09
1.44431e-09
1.22394e-09
8.13914e-10
7.48938e-10
6.05548e-10
6.54619e-10
5.2061e-10
4.43913e-10
3.58904e-10
2.0315e-10
6.73241e-11
3.91165e-11
-1.65841e-10
2.53991e-10
3.39045e-10
3.11037e-10
-7.97151e-12
8.30451e-10
3.6528e-10
4.02564e-10
-7.00175e-10
-1.22478e-09
-2.58717e-09
-2.96497e-09
2.44889e-07
1.24039e-09
1.44105e-09
1.47284e-09
1.49991e-09
1.41726e-09
1.55843e-09
1.56526e-09
1.58079e-09
1.5948e-09
1.74133e-09
1.58423e-09
1.75526e-09
1.47289e-09
1.73038e-09
1.76519e-09
1.50543e-09
1.77221e-09
1.69974e-09
1.76626e-09
1.75708e-09
1.72189e-09
1.62479e-09
1.68477e-09
1.34969e-09
1.50238e-09
1.47756e-09
1.39204e-09
1.01323e-09
7.93395e-10
6.95533e-10
8.54999e-10
6.84416e-10
5.01932e-10
4.14389e-10
-7.95741e-12
1.1746e-10
8.40259e-11
1.51178e-10
2.52683e-10
3.45461e-10
6.39543e-10
4.8115e-10
8.3063e-11
5.44743e-10
-1.19132e-10
5.80737e-10
1.06125e-10
2.55384e-09
8.77612e-10
2.29249e-07
9.37383e-10
1.15406e-09
1.65176e-09
1.55717e-09
1.75325e-09
1.75564e-09
1.61208e-09
1.63914e-09
1.65977e-09
1.67473e-09
1.76509e-09
1.68901e-09
1.84327e-09
1.69688e-09
1.6988e-09
1.79859e-09
1.70797e-09
1.74595e-09
1.70065e-09
1.67754e-09
1.68547e-09
1.84555e-09
1.60529e-09
1.72282e-09
1.59558e-09
1.52852e-09
1.60175e-09
1.05989e-09
8.41815e-10
7.85719e-10
5.66194e-10
7.38936e-10
5.50958e-10
4.74996e-10
5.6087e-10
-1.1082e-10
1.28473e-10
1.75714e-10
2.65774e-10
3.58358e-10
1.4418e-11
5.80648e-10
1.7929e-10
4.5867e-10
1.09757e-09
-4.08565e-10
-2.2474e-09
-2.59951e-09
-1.24328e-09
2.30411e-07
1.3264e-09
1.5206e-09
1.36939e-09
1.79458e-09
1.65483e-09
1.49231e-09
1.84353e-09
1.87742e-09
1.73479e-09
1.91774e-09
1.92446e-09
1.76307e-09
1.91496e-09
1.76809e-09
1.77287e-09
1.96496e-09
1.78032e-09
1.78619e-09
1.77855e-09
1.74778e-09
1.89948e-09
1.7662e-09
1.7509e-09
1.65412e-09
1.85435e-09
1.59192e-09
1.3017e-09
1.11238e-09
8.92814e-10
8.31521e-10
1.04816e-09
7.90461e-10
9.46033e-10
5.41313e-10
7.79599e-11
4.81568e-10
1.79691e-10
2.1851e-10
-4.664e-11
-5.60094e-11
4.21466e-10
3.24128e-10
5.97765e-10
1.09756e-10
5.04463e-11
3.54609e-10
-6.93333e-10
1.63238e-09
2.66604e-10
2.28773e-07
1.10169e-09
1.54695e-09
1.74944e-09
1.53208e-09
1.72495e-09
1.99082e-09
1.77288e-09
1.65766e-09
1.99163e-09
1.6747e-09
1.68088e-09
2.0131e-09
1.69564e-09
1.96678e-09
2.02015e-09
1.69495e-09
1.85625e-09
2.0389e-09
1.90243e-09
2.0065e-09
1.78426e-09
1.82892e-09
1.55567e-09
1.72711e-09
1.58885e-09
1.66361e-09
1.71055e-09
1.16575e-09
7.26219e-10
8.77809e-10
6.32915e-10
5.88553e-10
5.0621e-10
3.39513e-10
4.22023e-10
2.12635e-10
2.26397e-10
1.94865e-10
5.80447e-10
7.63628e-10
7.29946e-10
3.62145e-10
7.35105e-10
1.03851e-09
5.89804e-10
5.5006e-10
-1.83843e-10
-6.70387e-09
5.89851e-10
2.2712e-07
1.6241e-09
1.44646e-09
1.64602e-09
1.94656e-09
1.90606e-09
1.76777e-09
1.8619e-09
2.04799e-09
1.92016e-09
2.0884e-09
2.09316e-09
1.93251e-09
2.09416e-09
1.85197e-09
1.88936e-09
2.10226e-09
2.11198e-09
1.7809e-09
2.05689e-09
1.94657e-09
1.84525e-09
1.89418e-09
1.95495e-09
1.79182e-09
1.98979e-09
1.92966e-09
1.3903e-09
1.21889e-09
1.20432e-09
9.17644e-10
8.96184e-10
1.13125e-09
8.10652e-10
9.67976e-10
5.09601e-10
1.98895e-10
-5.78431e-11
-9.13225e-12
3.46492e-10
-8.02804e-11
1.66027e-10
5.72831e-10
3.55253e-10
1.09587e-10
6.85343e-10
4.76814e-10
-5.98325e-11
6.94872e-09
-7.70687e-10
2.24332e-07
1.8227e-09
1.74643e-09
1.72161e-09
1.85107e-09
1.87249e-09
1.83403e-09
1.96293e-09
2.16069e-09
2.00085e-09
2.00474e-09
2.00484e-09
2.00405e-09
2.00417e-09
2.12619e-09
2.0525e-09
2.01308e-09
2.02167e-09
2.20761e-09
2.09722e-09
2.04699e-09
2.13466e-09
2.15486e-09
1.88875e-09
1.87807e-09
1.85518e-09
1.62141e-09
1.8408e-09
1.30589e-09
1.0374e-09
9.54491e-10
9.3495e-10
6.5519e-10
8.66509e-10
4.91884e-10
6.00719e-10
3.51702e-10
6.91538e-10
6.31534e-10
-1.21543e-10
2.68775e-10
2.22864e-10
4.62061e-10
3.51393e-10
4.5944e-10
1.28221e-09
8.06383e-10
-1.32873e-09
-5.4524e-10
-5.60434e-10
2.21426e-07
1.59977e-09
1.74604e-09
2.02411e-09
2.12921e-09
1.93761e-09
2.20084e-09
2.26541e-09
1.92332e-09
2.08148e-09
2.27999e-09
2.19193e-09
2.07599e-09
2.07769e-09
2.27785e-09
2.13314e-09
2.08442e-09
2.09559e-09
2.26255e-09
2.14228e-09
2.15108e-09
1.99569e-09
1.86028e-09
2.00263e-09
2.06213e-09
1.88209e-09
2.0817e-09
1.71241e-09
1.48139e-09
9.65924e-10
9.91214e-10
9.73574e-10
1.23949e-09
9.1897e-10
1.08601e-09
6.88406e-10
8.82083e-10
4.2034e-10
2.98392e-10
6.03616e-10
6.78307e-10
2.19659e-10
2.25722e-10
6.2478e-10
1.14264e-09
-1.21053e-10
5.48667e-10
-1.72384e-10
1.75476e-09
-9.31536e-09
2.20471e-07
2.19462e-09
1.8823e-09
1.95394e-09
1.81501e-09
2.04556e-09
2.14893e-09
2.18668e-09
2.37543e-09
2.37141e-09
1.97159e-09
2.13752e-09
2.36364e-09
2.3644e-09
1.96983e-09
2.10817e-09
2.37217e-09
2.38177e-09
2.10873e-09
2.43615e-09
2.46332e-09
2.41313e-09
2.33731e-09
2.33851e-09
2.02542e-09
1.92102e-09
1.95945e-09
1.77677e-09
1.17764e-09
1.07631e-09
1.03099e-09
1.3e-09
7.19765e-10
9.7528e-10
9.03791e-10
7.69251e-10
2.80157e-10
1.16378e-10
3.63385e-11
2.7074e-10
-2.84865e-10
2.51668e-10
3.2118e-10
7.81991e-11
-2.91423e-10
5.25473e-10
1.07308e-09
-4.56185e-10
-2.83235e-09
1.25878e-08
2.17259e-07
2.0036e-09
2.25191e-09
2.08364e-09
2.32814e-09
2.39573e-09
2.48799e-09
2.28606e-09
2.27922e-09
2.27093e-09
2.46313e-09
2.38152e-09
2.26962e-09
2.26936e-09
2.46427e-09
2.46871e-09
2.10927e-09
2.28663e-09
2.44744e-09
2.33983e-09
2.17863e-09
2.36007e-09
2.47757e-09
2.27808e-09
2.08503e-09
2.21341e-09
2.03322e-09
1.84844e-09
1.42374e-09
1.30421e-09
1.28148e-09
7.78479e-10
1.36197e-09
1.03216e-09
6.81293e-10
8.5048e-10
1.07999e-09
9.58901e-10
7.05511e-10
-7.95626e-11
6.36663e-10
6.01296e-10
2.21549e-10
4.61158e-10
1.02325e-09
3.24091e-10
3.62029e-10
6.94368e-11
-7.99105e-10
7.44098e-09
2.17524e-07
2.56455e-09
2.17709e-09
2.22491e-09
2.24122e-09
2.34104e-09
2.3278e-09
2.61789e-09
2.48563e-09
2.37241e-09
2.60325e-09
2.37581e-09
2.37863e-09
2.38176e-09
2.38458e-09
2.46329e-09
2.72538e-09
2.39483e-09
2.40778e-09
2.4377e-09
2.90022e-09
2.49742e-09
2.1784e-09
2.38741e-09
2.19823e-09
1.88213e-09
2.12393e-09
1.93204e-09
1.76155e-09
1.43438e-09
1.00071e-09
1.21649e-09
1.13081e-09
1.09367e-09
1.35422e-09
9.41265e-10
8.17866e-10
6.84422e-10
6.2678e-10
8.0744e-10
2.99142e-10
-4.2961e-10
-1.71457e-11
2.48351e-10
3.99018e-10
1.24579e-09
3.04845e-10
-1.31666e-09
-5.93124e-10
-7.87147e-09
2.12414e-07
2.22896e-09
2.30395e-09
2.61812e-09
2.6155e-09
2.49476e-09
2.61646e-09
2.31418e-09
2.50968e-09
2.7346e-09
2.2881e-09
2.74987e-09
2.51562e-09
2.76138e-09
2.76366e-09
2.61508e-09
2.36224e-09
2.53033e-09
2.6217e-09