/*--------------------------------*- C++ -*----------------------------------*\
| =========                 |                                                 |
| \\      /  F ield         | OpenFOAM: The Open Source CFD Toolbox           |
|  \\    /   O peration     | Version:  v1912                                 |
|   \\  /    A nd           | Website:  www.openfoam.com                      |
|    \\/     M anipulation  |                                                 |
\*---------------------------------------------------------------------------*/
FoamFile
{
    version     2.0;
    format      ascii;
    class       surfaceScalarField;
    location    "31536000";
    object      gradT;
}
// * * * * * * * * * * * * * * * * * * * * * * * * * * * * * * * * * * * * * //

dimensions      [0 -1 0 1 0 0 0];
oriented        oriented;


internalField   nonuniform List<scalar> 
8365
(
0.161966
-0.131803
0.152624
-0.114002
0.124765
-0.112545
0.0972796
-0.113157
0.0745719
-0.114221
0.0562369
-0.115201
0.0421456
-0.116116
0.0316618
-0.11691
0.0241381
-0.117586
0.0190804
-0.11817
0.0161391
-0.11869
0.0150605
-0.119177
0.0156203
-0.119656
0.0175829
-0.120153
0.0206184
-0.120691
0.0242464
-0.121288
0.0277553
-0.121957
0.0301702
-0.122703
0.0303096
-0.123534
0.0269945
-0.124466
0.01942
-0.125542
0.00807481
-0.12688
-0.00644148
-0.128442
-0.0289359
-0.129548
-0.0593568
-0.130416
-0.0881564
-0.127509
-0.091495
-0.0979986
-0.0806624
-0.0973638
-0.0742845
-0.0947504
-0.070642
-0.0925014
-0.0684194
-0.0903817
-0.0664091
-0.0883132
-0.0636697
-0.0862768
-0.0595987
-0.0842931
-0.0539316
-0.0823982
-0.0466843
-0.0806298
-0.0380517
-0.0790225
-0.0282904
-0.077611
-0.0176056
-0.0764227
-0.00605776
-0.075485
0.00650707
-0.0748212
0.0204903
-0.0744489
0.0365342
-0.0743735
0.0553878
-0.0745879
0.0774037
-0.0750204
0.101243
-0.0754528
0.121523
-0.0754036
0.127348
-0.0741767
0.0987004
-0.0706821
-0.0626188
0.136187
-0.252328
0.128081
-0.225434
0.100707
-0.222876
0.0734645
-0.224217
0.0509132
-0.22633
0.0326656
-0.228292
0.0186147
-0.230108
0.0081378
-0.23168
0.000592305
-0.233018
-0.00451501
-0.234172
-0.00753501
-0.235201
-0.00872243
-0.236162
-0.00830237
-0.237105
-0.00650866
-0.238085
-0.00366553
-0.239144
-0.000241626
-0.240321
0.00306949
-0.24164
0.0053155
-0.243113
0.00533571
-0.244754
0.00196105
-0.246598
-0.00564303
-0.248711
-0.0169976
-0.251314
-0.0312855
-0.25433
-0.0532693
-0.256334
-0.0821762
-0.256795
-0.104967
-0.24612
-0.109128
-0.198147
-0.0977697
-0.192498
-0.0910131
-0.187357
-0.0869928
-0.182929
-0.0844009
-0.178775
-0.082045
-0.174716
-0.0790001
-0.170728
-0.074675
-0.166842
-0.0688113
-0.16313
-0.0614272
-0.159665
-0.0527181
-0.156519
-0.0429409
-0.153753
-0.0323051
-0.15142
-0.0208788
-0.149581
-0.00851921
-0.148277
0.005161
-0.147545
0.0207901
-0.147391
0.0391218
-0.147804
0.0605734
-0.148654
0.0840014
-0.149516
0.104374
-0.149458
0.111394
-0.147132
0.0863069
-0.140461
-0.125609
0.115803
-0.352557
0.10741
-0.331749
0.0797245
-0.329855
0.0521265
-0.332789
0.0292847
-0.33601
0.0107672
-0.339127
-0.0035062
-0.341878
-0.0141678
-0.34422
-0.0218709
-0.346211
-0.0271179
-0.347929
-0.0302678
-0.349457
-0.0315812
-0.350883
-0.0312886
-0.352281
-0.0296265
-0.353731
-0.0269201
-0.355298
-0.0236354
-0.35704
-0.0204617
-0.35899
-0.0183474
-0.361169
-0.0184552
-0.363595
-0.0219621
-0.366317
-0.0297404
-0.369364
-0.0412968
-0.372943
-0.0555152
-0.376887
-0.0769212
-0.378665
-0.103214
-0.373398
-0.120048
-0.347591
-0.127559
-0.297417
-0.115571
-0.285118
-0.108352
-0.277406
-0.103911
-0.270868
-0.100925
-0.264765
-0.0982042
-0.258806
-0.0948219
-0.252958
-0.0901891
-0.247255
-0.0840486
-0.241815
-0.0764196
-0.236739
-0.0674998
-0.232126
-0.0575511
-0.22807
-0.0467906
-0.224656
-0.0352928
-0.221959
-0.0229228
-0.220047
-0.0092976
-0.218968
0.006209
-0.218743
0.0243718
-0.219351
0.0456841
-0.2206
0.069177
-0.221898
0.0900674
-0.221862
0.0984368
-0.218507
0.0763885
-0.208868
-0.188275
0.097162
-0.438719
0.0878766
-0.428356
0.059382
-0.430358
0.0312997
-0.437196
0.00808714
-0.441984
-0.0107375
-0.4471
-0.025227
-0.45098
-0.0360597
-0.454093
-0.0439091
-0.456732
-0.0492873
-0.459006
-0.052561
-0.461027
-0.0539968
-0.462907
-0.0538304
-0.46475
-0.0523006
-0.466658
-0.0497331
-0.468718
-0.046591
-0.471005
-0.0435582
-0.473565
-0.0415792
-0.476423
-0.0418189
-0.4796
-0.0454398
-0.483151
-0.0533051
-0.486809
-0.0648927
-0.490191
-0.0785574
-0.493576
-0.0980043
-0.490525
-0.120033
-0.473602
-0.133375
-0.436905
-0.144811
-0.39368
-0.132598
-0.375063
-0.124967
-0.364698
-0.120137
-0.356128
-0.116779
-0.348148
-0.113714
-0.340382
-0.110015
-0.332761
-0.105101
-0.325338
-0.0987105
-0.318257
-0.0908653
-0.311647
-0.0817651
-0.305638
-0.071677
-0.300359
-0.0608232
-0.295914
-0.0492853
-0.292402
-0.0369342
-0.289913
-0.0233921
-0.2885
-0.00803304
-0.288203
0.00994312
-0.288998
0.0311113
-0.290635
0.0547014
-0.292376
0.0761944
-0.292372
0.0860501
-0.288005
0.0672247
-0.275629
-0.25022
0.0794959
-0.522347
0.0699371
-0.50916
0.0400431
-0.522153
0.0114928
-0.532364
-0.0124027
-0.541055
-0.0316055
-0.549978
-0.0463081
-0.555404
-0.0573042
-0.559359
-0.0652925
-0.562683
-0.0707956
-0.565533
-0.0741884
-0.568055
-0.0757433
-0.57039
-0.0757018
-0.57267
-0.0743043
-0.575024
-0.071877
-0.57756
-0.0688788
-0.580369
-0.0659873
-0.583505
-0.0641409
-0.586986
-0.0645056
-0.590818
-0.0681653
-0.595045
-0.0757941
-0.598711
-0.0870153
-0.599069
-0.0991263
-0.599831
-0.115474
-0.588224
-0.134037
-0.564346
-0.146669
-0.52772
-0.160796
-0.48626
-0.148824
-0.462263
-0.140851
-0.449204
-0.135663
-0.438671
-0.131957
-0.428907
-0.128567
-0.419414
-0.124573
-0.410102
-0.1194
-0.401049
-0.112785
-0.392394
-0.104751
-0.384334
-0.0954996
-0.377006
-0.0853003
-0.370558
-0.0743818
-0.365126
-0.0628323
-0.36084
-0.0505267
-0.357791
-0.0370927
-0.356064
-0.0219033
-0.355688
-0.00413087
-0.356654
0.0168853
-0.358681
0.0406062
-0.360867
0.0627862
-0.360849
0.0742339
-0.355519
0.0587455
-0.340686
-0.311295
0.0637933
-0.601427
0.0532403
-0.57918
0.0224181
-0.601117
-0.0069552
-0.616687
-0.0317467
-0.631483
-0.051124
-0.642387
-0.0660194
-0.649418
-0.0772091
-0.654714
-0.0853545
-0.659056
-0.0909921
-0.662691
-0.0945086
-0.665834
-0.0961848
-0.668691
-0.0962698
-0.671442
-0.0950059
-0.674257
-0.0927194
-0.677266
-0.0898622
-0.680571
-0.0871006
-0.684209
-0.0853568
-0.688145
-0.0857835
-0.692262
-0.0893311
-0.696421
-0.096305
-0.699786
-0.106814
-0.698545
-0.116542
-0.691924
-0.130632
-0.677145
-0.147555
-0.653086
-0.159835
-0.616276
-0.175625
-0.575561
-0.164248
-0.546724
-0.156018
-0.530985
-0.150506
-0.518544
-0.146474
-0.507074
-0.142779
-0.495956
-0.138511
-0.485037
-0.133099
-0.474418
-0.126284
-0.464278
-0.118086
-0.454824
-0.108709
-0.446244
-0.0984245
-0.438684
-0.0874686
-0.432321
-0.0759309
-0.427286
-0.063695
-0.423688
-0.0503903
-0.421652
-0.0353914
-0.421202
-0.0178422
-0.422328
0.00301406
-0.424757
0.0269057
-0.427367
0.0498359
-0.427307
0.0629334
-0.421224
0.0508337
-0.404357
-0.371763
0.0500228
-0.676236
0.0374072
-0.648354
0.0064026
-0.66924
-0.024042
-0.692115
-0.0491613
-0.710383
-0.0685967
-0.722319
-0.0837756
-0.731901
-0.0952351
-0.739425
-0.103579
-0.745278
-0.109372
-0.749973
-0.113022
-0.753889
-0.114825
-0.757347
-0.11504
-0.760613
-0.113912
-0.763908
-0.111766
-0.76739
-0.109041
-0.771175
-0.106382
-0.775253
-0.104672
-0.779493
-0.105006
-0.783501
-0.108265
-0.786616
-0.114555
-0.788407
-0.12375
-0.787498
-0.13185
-0.774285
-0.144867
-0.761017
-0.160584
-0.737544
-0.172576
-0.701946
-0.189403
-0.661628
-0.178886
-0.628476
-0.170492
-0.610115
-0.16469
-0.595821
-0.160357
-0.58273
-0.156375
-0.570064
-0.151852
-0.557621
-0.14622
-0.545516
-0.139228
-0.533966
-0.13089
-0.523198
-0.121409
-0.513407
-0.111066
-0.504799
-0.100095
-0.497538
-0.0885899
-0.491785
-0.0764454
-0.487666
-0.0632902
-0.485307
-0.0485018
-0.48479
-0.0311991
-0.486094
-0.0105074
-0.488935
0.0135893
-0.49196
0.0372897
-0.49191
0.0520418
-0.485365
0.043337
-0.467062
-0.431919
0.0373727
-0.746736
0.0225303
-0.715432
-0.00884733
-0.734908
-0.039562
-0.759863
-0.0645814
-0.778897
-0.0843606
-0.794177
-0.0998858
-0.806682
-0.111586
-0.816142
-0.1201
-0.823246
-0.126023
-0.828786
-0.129789
-0.833326
-0.131707
-0.83728
-0.132044
-0.840979
-0.131045
-0.84469
-0.129034
-0.848598
-0.126435
-0.852847
-0.123865
-0.857402
-0.122144
-0.862074
-0.122269
-0.866282
-0.125085
-0.868838
-0.130801
-0.868595
-0.138381
-0.865782
-0.146229
-0.853109
-0.158339
-0.840198
-0.173106
-0.817886
-0.184812
-0.784373
-0.202207
-0.74447
-0.192758
-0.707545
-0.184299
-0.686652
-0.178247
-0.670596
-0.173635
-0.65597
-0.169383
-0.641826
-0.164621
-0.627941
-0.158792
-0.614425
-0.151643
-0.601541
-0.143184
-0.589523
-0.133623
-0.578577
-0.123241
-0.56896
-0.112275
-0.560838
-0.100824
-0.554396
-0.0887895
-0.549776
-0.0758061
-0.547117
-0.0612528
-0.546549
-0.0442206
-0.548087
-0.023697
-0.551325
0.000624926
-0.554782
0.025078
-0.554824
0.0414455
-0.548162
0.0361438
-0.528917
-0.491725
0.0256798
-0.81326
0.00829912
-0.779888
-0.0234701
-0.798522
-0.0538695
-0.823547
-0.0789853
-0.843747
-0.0990575
-0.861114
-0.114704
-0.874911
-0.126465
-0.885158
-0.135033
-0.89283
-0.141016
-0.898805
-0.144852
-0.903721
-0.146854
-0.907998
-0.147293
-0.912008
-0.14641
-0.91604
-0.14453
-0.920313
-0.142057
-0.924972
-0.139586
-0.930025
-0.137886
-0.935255
-0.137854
-0.940115
-0.140248
-0.943306
-0.145414
-0.94303
-0.151983
-0.938965
-0.159919
-0.928397
-0.171192
-0.915637
-0.185201
-0.894551
-0.196523
-0.863363
-0.214113
-0.824114
-0.205892
-0.783998
-0.197468
-0.760681
-0.191204
-0.742944
-0.186336
-0.726869
-0.181833
-0.711349
-0.17685
-0.696101
-0.170844
-0.681251
-0.163555
-0.667102
-0.154993
-0.653865
-0.145374
-0.641849
-0.13497
-0.631253
-0.124028
-0.62231
-0.11265
-0.615191
-0.100744
-0.610079
-0.0879592
-0.607168
-0.073674
-0.606607
-0.0569303
-0.608451
-0.0365807
-0.612081
-0.012024
-0.615957
0.0131252
-0.61621
0.0310583
-0.609922
0.0291957
-0.590004
-0.551093
0.0148042
-0.876208
-0.00532237
-0.841514
-0.0375326
-0.859963
-0.0676405
-0.884651
-0.0928546
-0.906128
-0.112914
-0.924554
-0.12844
-0.938796
-0.14012
-0.94939
-0.148662
-0.957398
-0.154659
-0.96371
-0.158534
-0.968938
-0.1606
-0.973488
-0.161126
-0.977778
-0.160351
-0.982091
-0.158593
-0.986671
-0.156246
-0.991689
-0.153882
-0.997169
-0.152239
-1.00289
-0.152148
-1.00837
-0.154284
-1.01246
-0.159034
-1.01319
-0.165085
-1.00908
-0.172983
-1.0004
-0.18354
-0.987895
-0.196915
-0.967975
-0.207725
-0.938897
-0.225203
-0.900622
-0.21832
-0.857888
-0.210028
-0.832307
-0.203593
-0.812955
-0.198493
-0.795538
-0.193755
-0.778708
-0.188567
-0.762158
-0.182401
-0.746065
-0.174987
-0.730702
-0.166345
-0.71634
-0.156681
-0.703275
-0.146275
-0.691761
-0.135373
-0.682016
-0.124085
-0.674252
-0.112334
-0.6687
-0.0997789
-0.665574
-0.0857985
-0.665127
-0.0693539
-0.667311
-0.0491838
-0.671339
-0.0244032
-0.675638
0.00134372
-0.676356
0.0208282
-0.670749
0.0224576
-0.650343
-0.609973
0.00463952
-0.935953
-0.0183766
-0.900362
-0.0510761
-0.919066
-0.0810457
-0.943616
-0.106265
-0.966269
-0.126133
-0.985247
-0.141458
-0.999713
-0.153024
-1.01062
-0.161524
-1.01897
-0.167525
-1.02563
-0.171429
-1.03115
-0.173556
-1.03598
-0.174164
-1.04055
-0.173489
-1.04511
-0.17185
-1.04997
-0.169624
-1.05531
-0.167361
-1.06116
-0.165775
-1.06731
-0.165654
-1.07329
-0.167619
-1.07813
-0.172018
-1.08003
-0.1778
-1.07665
-0.185493
-1.0693
-0.195453
-1.0573
-0.208262
-1.03849
-0.218462
-1.01111
-0.235552
-0.974048
-0.230075
-0.929256
-0.222005
-0.901585
-0.215444
-0.880708
-0.210132
-0.862041
-0.205173
-0.843964
-0.199798
-0.826212
-0.193486
-0.808927
-0.185966
-0.792417
-0.17726
-0.77701
-0.167569
-0.762948
-0.157176
-0.750544
-0.146331
-0.740057
-0.135156
-0.731687
-0.123588
-0.72575
-0.111304
-0.722503
-0.0976564
-0.722264
-0.081514
-0.724793
-0.0615292
-0.729182
-0.0365675
-0.733942
-0.0103164
-0.735374
0.0107351
-0.730632
0.0159054
-0.709862
-0.668368
-0.00489894
-0.99278
-0.0309036
-0.956577
-0.0641351
-0.97577
-0.0941088
-1.00055
-0.119229
-1.02415
-0.138839
-1.04347
-0.15397
-1.05824
-0.165431
-1.06954
-0.173898
-1.07828
-0.179898
-1.08531
-0.183829
-1.09112
-0.186015
-1.09623
-0.186698
-1.10104
-0.186124
-1.10586
-0.184599
-1.11101
-0.182489
-1.11663
-0.180321
-1.12279
-0.178785
-1.12931
-0.178637
-1.13572
-0.18046
-1.14112
-0.184529
-1.14399
-0.190115
-1.14168
-0.197515
-1.13526
-0.20697
-1.12403
-0.219238
-1.10631
-0.228775
-1.08018
-0.245233
-1.04447
-0.24119
-0.998146
-0.233425
-0.968571
-0.226782
-0.94629
-0.221274
-0.926422
-0.216115
-0.907222
-0.210568
-0.888346
-0.204124
-0.869943
-0.196517
-0.85235
-0.18776
-0.83592
-0.178059
-0.820955
-0.167697
-0.807709
-0.156927
-0.796507
-0.145893
-0.787606
-0.134542
-0.781344
-0.122574
-0.778119
-0.109274
-0.77816
-0.0934278
-0.781017
-0.0736391
-0.785723
-0.0485549
-0.790974
-0.0218748
-0.7933
0.000771337
-0.789559
0.00951176
-0.768577
-0.726196
-0.0138755
-1.04687
-0.0429348
-1.01028
-0.0767442
-1.03009
-0.106808
-1.05543
-0.131747
-1.07977
-0.151101
-1.09939
-0.166066
-1.11458
-0.177437
-1.12635
-0.185871
-1.13553
-0.191864
-1.14289
-0.195822
-1.14901
-0.198059
-1.15439
-0.198815
-1.15942
-0.19834
-1.16449
-0.196925
-1.16989
-0.194928
-1.17577
-0.192852
-1.18223
-0.191363
-1.18909
-0.191183
-1.19588
-0.19287
-1.2017
-0.196628
-1.20528
-0.202001
-1.20413
-0.209099
-1.19844
-0.218115
-1.18821
-0.229834
-1.17158
-0.238705
-1.14635
-0.254318
-1.11204
-0.251701
-1.06465
-0.244318
-1.03335
-0.237631
-1.00978
-0.231952
-0.988809
-0.22661
-0.968575
-0.220905
-0.948629
-0.214344
-0.929204
-0.206661
-0.910593
-0.19787
-0.893176
-0.188174
-0.877347
-0.17786
-0.863333
-0.167187
-0.851472
-0.156321
-0.842092
-0.145237
-0.835621
-0.133622
-0.83256
-0.120671
-0.832939
-0.10511
-0.836048
-0.0855324
-0.841057
-0.0603989
-0.846789
-0.0333524
-0.850356
-0.00907321
-0.847535
0.00326647
-0.826419
-0.783303
-0.022341
-1.09839
-0.0544995
-1.06162
-0.0889372
-1.08213
-0.119123
-1.10826
-0.143834
-1.13316
-0.162959
-1.15317
-0.17778
-1.16885
-0.189066
-1.1811
-0.197458
-1.19072
-0.203442
-1.1984
-0.20742
-1.20481
-0.209702
-1.21043
-0.210527
-1.21569
-0.210147
-1.22096
-0.208838
-1.22659
-0.206951
-1.23272
-0.204968
-1.23947
-0.203526
-1.24667
-0.203308
-1.25381
-0.204861
-1.26
-0.208335
-1.26412
-0.213453
-1.26402
-0.220287
-1.25902
-0.228905
-1.24989
-0.240045
-1.23436
-0.248285
-1.20983
-0.262873
-1.17681
-0.261642
-1.1288
-0.254708
-1.09597
-0.248018
-1.07121
-0.242194
-1.04927
-0.236679
-1.02807
-0.230834
-1.00715
-0.224168
-0.986757
-0.216423
-0.967194
-0.207615
-0.948898
-0.197937
-0.932216
-0.18769
-0.917496
-0.177138
-0.905044
-0.166479
-0.895273
-0.155712
-0.888748
-0.144472
-0.885938
-0.131853
-0.886629
-0.116571
-0.88993
-0.0972205
-0.895252
-0.0721362
-0.901467
-0.044741
-0.906383
-0.0188035
-0.904556
-0.00284421
-0.883432
-0.839837
-0.030345
-1.14749
-0.0656323
-1.11076
-0.100746
-1.13204
-0.131046
-1.15906
-0.155517
-1.18446
-0.174439
-1.2049
-0.189122
-1.22112
-0.20032
-1.23383
-0.208661
-1.24384
-0.214629
-1.25186
-0.218619
-1.2585
-0.220939
-1.26436
-0.22183
-1.26981
-0.221541
-1.2753
-0.220332
-1.28112
-0.218556
-1.28749
-0.21667
-1.2945
-0.215276
-1.30203
-0.215019
-1.30953
-0.216443
-1.31608
-0.219661
-1.32063
-0.224486
-1.32143
-0.231107
-1.31716
-0.239344
-1.30912
-0.249874
-1.29469
-0.25753
-1.27083
-0.270955
-1.23894
-0.271047
-1.19068
-0.264623
-1.15653
-0.25797
-1.1307
-0.252018
-1.10785
-0.246347
-1.08576
-0.240374
-1.06396
-0.233615
-1.04267
-0.225826
-1.02222
-0.217013
-1.00311
-0.207373
-0.985664
-0.19721
-0.970281
-0.186811
-0.957321
-0.176406
-0.947296
-0.166
-0.940851
-0.155138
-0.938387
-0.142825
-0.939303
-0.127825
-0.942755
-0.108718
-0.948361
-0.0837722
-0.955148
-0.0560342
-0.961336
-0.0284314
-0.960637
-0.00885221
-0.93961
-0.89578
-0.0379286
-1.19421
-0.0763595
-1.1578
-0.112189
-1.17988
-0.142583
-1.20784
-0.166818
-1.23373
-0.185556
-1.25465
-0.2001
-1.27142
-0.2112
-1.28458
-0.21948
-1.29493
-0.225418
-1.30323
-0.229415
-1.3101
-0.231766
-1.31615
-0.232722
-1.32181
-0.232516
-1.32748
-0.23141
-1.33349
-0.229744
-1.3401
-0.227954
-1.34737
-0.226609
-1.35517
-0.226319
-1.36303
-0.227621
-1.36997
-0.230608
-1.3749
-0.235123
-1.37643
-0.241569
-1.37297
-0.249436
-1.36595
-0.259337
-1.35259
-0.266452
-1.32947
-0.278617
-1.29854
-0.279954
-1.25034
-0.274091
-1.21508
-0.267508
-1.18832
-0.261447
-1.16463
-0.255636
-1.14174
-0.249546
-1.11914
-0.242708
-1.097
-0.234891
-1.07577
-0.226089
-1.05589
-0.216504
-1.03777
-0.20645
-1.02178
-0.19624
-1.00843
-0.186137
-0.998263
-0.176126
-0.992028
-0.165626
-0.989927
-0.153599
-0.991018
-0.138882
-0.994584
-0.120047
-1.00046
-0.0953107
-1.00788
-0.067245
-1.01539
-0.0379617
-1.01574
-0.014774
-0.994939
-0.951069
-0.0451278
-1.23859
-0.0867021
-1.20283
-0.123282
-1.22576
-0.153739
-1.25467
-0.177748
-1.281
-0.19632
-1.30249
-0.210718
-1.31978
-0.221706
-1.33337
-0.229912
-1.34402
-0.235811
-1.35255
-0.239809
-1.35964
-0.24219
-1.36587
-0.243204
-1.37172
-0.243079
-1.37755
-0.242075
-1.38375
-0.240516
-1.39055
-0.238821
-1.39806
-0.237531
-1.40616
-0.237216
-1.41435
-0.238397
-1.42171
-0.241175
-1.42699
-0.245386
-1.42915
-0.251678
-1.42653
-0.259181
-1.42041
-0.268446
-1.40808
-0.275052
-1.38586
-0.285903
-1.35569
-0.288396
-1.30785
-0.283136
-1.27168
-0.276654
-1.24408
-0.270505
-1.21968
-0.26457
-1.19608
-0.258375
-1.17276
-0.251474
-1.14988
-0.243641
-1.1279
-0.234865
-1.10732
-0.225354
-1.08858
-0.215439
-1.07212
-0.205457
-1.05845
-0.195703
-1.04828
-0.186102
-1.04238
-0.175935
-1.04055
-0.164179
-1.04178
-0.149749
-1.04544
-0.131216
-1.05159
-0.106758
-1.05963
-0.078364
-1.06847
-0.0474036
-1.06982
-0.0206296
-1.04952
-1.00575
-0.0519855
-1.2807
-0.0966847
-1.24598
-0.13404
-1.2698
-0.164523
-1.29961
-0.188332
-1.3264
-0.206737
-1.34849
-0.220976
-1.36623
-0.231838
-1.38017
-0.239961
-1.39113
-0.245817
-1.39988
-0.249808
-1.40716
-0.252216
-1.41355
-0.253283
-1.41956
-0.253238
-1.42558
-0.252331
-1.43194
-0.250877
-1.43892
-0.24928
-1.44665
-0.248049
-1.45503
-0.247717
-1.46355
-0.24878
-1.47131
-0.251368
-1.47702
-0.255291
-1.47969
-0.261434
-1.4779
-0.26858
-1.47259
-0.277227
-1.46121
-0.283329
-1.44008
-0.292856
-1.41054
-0.296407
-1.3633
-0.291778
-1.3264
-0.285428
-1.29807
-0.279214
-1.27306
-0.27317
-1.24884
-0.266883
-1.22489
-0.259932
-1.20133
-0.252095
-1.17869
-0.243363
-1.15748
-0.23395
-1.1382
-0.224202
-1.12134
-0.21449
-1.10746
-0.205128
-1.09745
-0.19593
-1.09192
-0.186067
-1.09033
-0.174565
-1.0916
-0.160433
-1.09534
-0.142229
-1.10179
-0.118115
-1.11049
-0.0893904
-1.12069
-0.0567765
-1.12301
-0.0264176
-1.10317
-1.0596
-0.0585455
-1.32064
-0.106328
-1.28729
-0.144474
-1.31209
-0.174956
-1.34271
-0.198582
-1.37004
-0.21681
-1.39268
-0.230874
-1.41085
-0.241599
-1.42507
-0.249632
-1.43628
-0.255441
-1.44526
-0.259422
-1.45274
-0.261852
-1.45928
-0.26297
-1.46543
-0.263001
-1.4716
-0.262189
-1.47812
-0.260841
-1.48529
-0.25934
-1.49321
-0.258169
-1.50182
-0.257829
-1.51068
-0.258785
-1.51884
-0.261192
-1.52503
-0.264852
-1.52808
-0.27084
-1.52716
-0.277637
-1.52257
-0.285701
-1.51208
-0.291285
-1.49213
-0.29951
-1.46317
-0.304014
-1.41669
-0.30004
-1.37928
-0.293855
-1.35035
-0.287594
-1.32482
-0.281458
-1.30011
-0.275087
-1.27557
-0.268099
-1.25139
-0.260276
-1.22819
-0.251605
-1.20644
-0.242315
-1.18669
-0.232761
-1.16953
-0.223367
-1.15555
-0.214425
-1.14582
-0.20561
-1.14069
-0.196021
-1.13926
-0.184766
-1.14055
-0.170941
-1.14436
-0.153095
-1.15106
-0.129385
-1.16049
-0.100317
-1.1719
-0.0660749
-1.17523
-0.0321432
-1.15605
-1.11285
-0.0648431
-1.35847
-0.11565
-1.3268
-0.154588
-1.3527
-0.185054
-1.38407
-0.208507
-1.41195
-0.226543
-1.43509
-0.240417
-1.45363
-0.251
-1.46814
-0.258935
-1.47959
-0.264696
-1.48874
-0.268662
-1.49642
-0.271112
-1.50311
-0.272276
-1.5094
-0.272379
-1.51569
-0.271662
-1.52236
-0.270415
-1.52968
-0.269009
-1.53779
-0.267904
-1.54664
-0.267564
-1.5558
-0.268426
-1.56437
-0.270647
-1.57101
-0.274083
-1.57449
-0.279901
-1.57439
-0.28636
-1.57041
-0.29388
-1.56073
-0.298918
-1.54203
-0.305884
-1.51361
-0.311248
-1.46811
-0.307945
-1.43039
-0.301954
-1.40098
-0.295668
-1.37502
-0.289449
-1.34989
-0.283005
-1.32484
-0.275998
-1.30018
-0.268201
-1.27644
-0.259612
-1.25423
-0.250468
-1.23412
-0.241141
-1.21673
-0.23211
-1.20282
-0.223601
-1.19343
-0.215138
-1.18867
-0.205802
-1.18735
-0.194792
-1.18868
-0.181277
-1.19257
-0.163815
-1.19943
-0.140531
-1.2095
-0.111124
-1.22196
-0.0753119
-1.22646
-0.0378389
-1.20811
-1.16555
-0.0709102
-1.39429
-0.124671
-1.36457
-0.164391
-1.39168
-0.194833
-1.42375
-0.218111
-1.4522
-0.23594
-1.47578
-0.249616
-1.49466
-0.260052
-1.50945
-0.267885
-1.52109
-0.273597
-1.53045
-0.277541
-1.53829
-0.280008
-1.54511
-0.281216
-1.55153
-0.281388
-1.55795
-0.280762
-1.56474
-0.279615
-1.57222
-0.278306
-1.58053
-0.277266
-1.58955
-0.276932
-1.59899
-0.277706
-1.60795
-0.279747
-1.61502
-0.282997
-1.61899
-0.288621
-1.61964
-0.294755
-1.61622
-0.301775
-1.60729
-0.306232
-1.58982
-0.312008
-1.56198
-0.318137
-1.51762
-0.315515
-1.47977
-0.309743
-1.45001
-0.30345
-1.42372
-0.297156
-1.39824
-0.290661
-1.37281
-0.283643
-1.34773
-0.275888
-1.32352
-0.267402
-1.30093
-0.258428
-1.28056
-0.249369
-1.26303
-0.240735
-1.24933
-0.232653
-1.24032
-0.224508
-1.23584
-0.215414
-1.23459
-0.20465
-1.23597
-0.191442
-1.23996
-0.174379
-1.24697
-0.151542
-1.25755
-0.121834
-1.27117
-0.0844937
-1.27678
-0.0435074
-1.25926
-1.21744
-0.0767778
-1.42822
-0.133406
-1.40065
-0.173887
-1.42904
-0.204303
-1.46182
-0.227398
-1.49082
-0.245011
-1.51486
-0.258483
-1.534
-0.268764
-1.54903
-0.276496
-1.56086
-0.282155
-1.57043
-0.286073
-1.57842
-0.288555
-1.58538
-0.289807
-1.59192
-0.290047
-1.5985
-0.289509
-1.60541
-0.288464
-1.61302
-0.287244
-1.62148
-0.286271
-1.63069
-0.285944
-1.64034
-0.286635
-1.64961
-0.28851
-1.65716
-0.291592
-1.66161
-0.297007
-1.66291
-0.302837
-1.66009
-0.3094
-1.65193
-0.313246
-1.63555
-0.317909
-1.60842
-0.324709
-1.56531
-0.322769
-1.52748
-0.317238
-1.49747
-0.310956
-1.47095
-0.304606
-1.44523
-0.29807
-1.41949
-0.291051
-1.39404
-0.283359
-1.36951
-0.274996
-1.34661
-0.266216
-1.32604
-0.257466
-1.3085
-0.249251
-1.2951
-0.241578
-1.28651
-0.23372
-1.28223
-0.22486
-1.28103
-0.214339
-1.28245
-0.201437
-1.28649
-0.184788
-1.29371
-0.162436
-1.3048
-0.132447
-1.31932
-0.0936256
-1.32624
-0.0491539
-1.3097
-1.26869
-0.082473
-1.46041
-0.141869
-1.43508
-0.183087
-1.46486
-0.213472
-1.49832
-0.236384
-1.52791
-0.253763
-1.55232
-0.267024
-1.5717
-0.277148
-1.58693
-0.284783
-1.59903
-0.290381
-1.60875
-0.294274
-1.61689
-0.29677
-1.62399
-0.298066
-1.63065
-0.29837
-1.63735
-0.29792
-1.6444
-0.296968
-1.65211
-0.295838
-1.66068
-0.294929
-1.6701
-0.294612
-1.67993
-0.295231
-1.68951
-0.296945
-1.6975
-0.299871
-1.70241
-0.305075
-1.70432
-0.310626
-1.70212
-0.316758
-1.69471
-0.319977
-1.67929
-0.323605
-1.65291
-0.330988
-1.61121
-0.329726
-1.57357
-0.324457
-1.54344
-0.318204
-1.51678
-0.311808
-1.49088
-0.305241
-1.46491
-0.298241
-1.4392
-0.290628
-1.4144
-0.282408
-1.39131
-0.273848
-1.37059
-0.265445
-1.35319
-0.257661
-1.34012
-0.250372
-1.33198
-0.24278
-1.32786
-0.234145
-1.32671
-0.22386
-1.32813
-0.211268
-1.33223
-0.195054
-1.33962
-0.173193
-1.3513
-0.142964
-1.36645
-0.10272
-1.37476
-0.0548043
-1.35934
-1.31946
-0.0880177
-1.49097
-0.150081
-1.46797
-0.192001
-1.49923
-0.222357
-1.53334
-0.245068
-1.56349
-0.262202
-1.5882
-0.275251
-1.60785
-0.285226
-1.62329
-0.292756
-1.63561
-0.298293
-1.64549
-0.30216
-1.65377
-0.304668
-1.66103
-0.306002
-1.6678
-0.306366
-1.67456
-0.305999
-1.68171
-0.305139
-1.68957
-0.304101
-1.69827
-0.303254
-1.70784
-0.302953
-1.71788
-0.303507
-1.72768
-0.305065
-1.73607
-0.307846
-1.74151
-0.312841
-1.74394
-0.318132
-1.74236
-0.323847
-1.73568
-0.326437
-1.72113
-0.329108
-1.69556
-0.336993
-1.65535
-0.336404
-1.61809
-0.331417
-1.58794
-0.325209
-1.56123
-0.31878
-1.53526
-0.312196
-1.50917
-0.305227
-1.48325
-0.29771
-1.45827
-0.289648
-1.43504
-0.281345
-1.41429
-0.273313
-1.3971
-0.265964
-1.38446
-0.259029
-1.37668
-0.25169
-1.37274
-0.24327
-1.37162
-0.233221
-1.37305
-0.220939
-1.37724
-0.205173
-1.38476
-0.183796
-1.39679
-0.153399
-1.41284
-0.111775
-1.42232
-0.0604765
-1.40823
-1.36958
-0.0934284
-1.51995
-0.158062
-1.49941
-0.200639
-1.53212
-0.230966
-1.56698
-0.253454
-1.59761
-0.27034
-1.62259
-0.283178
-1.64248
-0.293006
-1.65815
-0.300426
-1.67066
-0.305902
-1.68072
-0.309743
-1.68912
-0.312257
-1.69651
-0.313624
-1.70338
-0.314045
-1.71026
-0.313759
-1.71747
-0.31299
-1.72543
-0.312041
-1.73425
-0.311257
-1.74395
-0.310969
-1.75417
-0.311464
-1.76418
-0.312882
-1.77292
-0.315522
-1.77892
-0.320317
-1.78185
-0.325364
-1.7809
-0.330675
-1.77496
-0.332646
-1.76116
-0.334438
-1.73648
-0.342751
-1.69787
-0.342821
-1.66109
-0.338131
-1.63103
-0.331984
-1.60436
-0.32554
-1.57839
-0.318949
-1.55228
-0.312025
-1.52624
-0.304618
-1.50116
-0.296736
-1.47784
-0.288718
-1.4572
-0.281078
-1.44026
-0.274153
-1.42808
-0.267549
-1.42062
-0.260446
-1.41681
-0.252238
-1.41574
-0.242431
-1.41723
-0.230452
-1.42149
-0.215119
-1.42915
-0.194259
-1.44132
-0.163741
-1.45834
-0.120804
-1.46904
-0.0661602
-1.45631
-1.41896
-0.0987264
-1.54754
-0.165816
-1.52944
-0.209016
-1.56361
-0.239304
-1.59926
-0.261553
-1.63034
-0.278189
-1.65557
-0.29082
-1.67567
-0.300498
-1.69161
-0.307806
-1.70424
-0.313217
-1.71448
-0.31703
-1.72301
-0.319544
-1.7305
-0.320945
-1.73746
-0.321421
-1.74442
-0.321213
-1.75175
-0.320528
-1.75976
-0.319667
-1.76868
-0.318946
-1.77851
-0.318673
-1.7889
-0.319118
-1.79914
-0.320407
-1.80816
-0.322902
-1.81467
-0.327515
-1.81806
-0.33234
-1.81783
-0.33725
-1.81264
-0.338624
-1.79946
-0.339617
-1.77575
-0.348282
-1.73878
-0.348993
-1.70262
-0.344615
-1.67274
-0.338544
-1.6462
-0.332098
-1.62032
-0.325508
-1.59424
-0.318644
-1.56819
-0.311361
-1.54305
-0.303686
-1.51977
-0.295976
-1.49932
-0.288744
-1.48273
-0.282225
-1.471
-0.275926
-1.46382
-0.269046
-1.46011
-0.261052
-1.45908
-0.251483
-1.46063
-0.239807
-1.46496
-0.224895
-1.47274
-0.204593
-1.48523
-0.173987
-1.5029
-0.129807
-1.51491
-0.0718593
-1.50356
-1.46777
-0.103922
-1.57382
-0.173357
-1.55813
-0.217145
-1.59381
-0.247376
-1.6302
-0.269376
-1.66168
-0.285761
-1.6872
-0.298191
-1.70749
-0.307709
-1.72366
-0.314907
-1.73644
-0.320249
-1.74681
-0.324032
-1.75549
-0.326542
-1.76307
-0.327972
-1.77011
-0.328501
-1.7771
-0.328368
-1.78454
-0.327766
-1.79264
-0.326992
-1.80164
-0.326335
-1.8116
-0.32608
-1.82215
-0.326475
-1.83257
-0.327649
-1.84185
-0.329994
-1.84884
-0.33445
-1.85269
-0.339068
-1.85313
-0.343576
-1.84875
-0.344392
-1.83618
-0.344652
-1.81345
-0.353598
-1.7781
-0.354933
-1.74271
-0.350879
-1.71312
-0.3449
-1.68678
-0.338463
-1.66109
-0.331889
-1.63511
-0.325098
-1.60914
-0.317956
-1.58407
-0.310509
-1.56086
-0.303127
-1.54064
-0.296312
-1.52448
-0.29018
-1.51321
-0.284162
-1.5063
-0.277496
-1.50264
-0.269713
-1.50167
-0.260378
-1.50325
-0.249002
-1.50769
-0.23452
-1.51559
-0.214788
-1.52833
-0.184143
-1.54669
-0.138781
-1.55991
-0.0776332
-1.55007
-1.51673
-0.10902
-1.5988
-0.1807
-1.58555
-0.225033
-1.62273
-0.255185
-1.65988
-0.27693
-1.69172
-0.293066
-1.71749
-0.305295
-1.73801
-0.31465
-1.75434
-0.321734
-1.7673
-0.327006
-1.77773
-0.330755
-1.78655
-0.333258
-1.79421
-0.33471
-1.80132
-0.335294
-1.80838
-0.33523
-1.81588
-0.334712
-1.82405
-0.334025
-1.83316
-0.333431
-1.8432
-0.333192
-1.85391
-0.333543
-1.8645
-0.334617
-1.87406
-0.336814
-1.88148
-0.341129
-1.88584
-0.345555
-1.88689
-0.349665
-1.88331
-0.349962
-1.87141
-0.349544
-1.8496
-0.358718
-1.81592
-0.360656
-1.78141
-0.356936
-1.75219
-0.351064
-1.72615
-0.344648
-1.70071
-0.338104
-1.67492
-0.331399
-1.64912
-0.324411
-1.62415
-0.31721
-1.60114
-0.310173
-1.58119
-0.303776
-1.56549
-0.298011
-1.55466
-0.292257
-1.54802
-0.285799
-1.54444
-0.27822
-1.54349
-0.269123
-1.54515
-0.258043
-1.5497
-0.243986
-1.55771
-0.224837
-1.57065
-0.194201
-1.58956
-0.14773
-1.60408
-0.0835024
-1.59579
-1.56433
-0.114026
-1.62256
-0.187852
-1.61175
-0.232688
-1.65043
-0.26274
-1.68832
-0.284223
-1.7205
-0.300111
-1.74649
-0.312138
-1.76726
-0.321327
-1.78372
-0.32829
-1.79679
-0.333493
-1.80737
-0.337197
-1.81622
-0.339695
-1.82396
-0.341171
-1.83117
-0.341807
-1.83829
-0.341806
-1.84585
-0.341373
-1.85407
-0.340767
-1.86326
-0.34024
-1.87339
-0.340021
-1.88425
-0.340339
-1.89506
-0.341319
-1.90486
-0.343376
-1.91265
-0.34756
-1.91753
-0.351808
-1.91916
-0.355525
-1.91635
-0.355337
-1.90517
-0.354307
-1.88426
-0.36366
-1.85234
-0.366172
-1.81871
-0.362796
-1.78999
-0.357046
-1.76431
-0.350664
-1.73922
-0.344162
-1.71371
-0.337549
-1.68811
-0.330736
-1.66336
-0.323796
-1.64062
-0.317117
-1.621
-0.311129
-1.60576
-0.305714
-1.59535
-0.300205
-1.58893
-0.293951
-1.58546
-0.286578
-1.58455
-0.277722
-1.58631
-0.266933
-1.59098
-0.253295
-1.59914
-0.234727
-1.61225
-0.204154
-1.63149
-0.156671
-1.64742
-0.0893594
-1.64106
-1.61051
-0.118947
-1.64512
-0.194825
-1.63684
-0.240119
-1.67696
-0.270048
-1.71557
-0.291266
-1.74807
-0.30691
-1.7743
-0.318726
-1.79524
-0.327744
-1.81184
-0.334589
-1.825
-0.339715
-1.8357
-0.343373
-1.8446
-0.345866
-1.85242
-0.347361
-1.8597
-0.348047
-1.86686
-0.348108
-1.87447
-0.347756
-1.88274
-0.34723
-1.892
-0.346772
-1.90221
-0.34658
-1.91322
-0.346866
-1.92425
-0.347757
-1.93424
-0.349686
-1.94239
-0.353747
-1.9478
-0.357827
-1.95
-0.361161
-1.94784
-0.360521
-1.93749
-0.358951
-1.91753
-0.368425
-1.88731
-0.371492
-1.85469
-0.368468
-1.82651
-0.362855
-1.80132
-0.35652
-1.77664
-0.350068
-1.75149
-0.343561
-1.72617
-0.336936
-1.7017
-0.330271
-1.67925
-0.32396
-1.66009
-0.318372
-1.64531
-0.31328
-1.63528
-0.308003
-1.62905
-0.301949
-1.62565
-0.294787
-1.62484
-0.28617
-1.62668
-0.275676
-1.63152
-0.262451
-1.63987
-0.244452
-1.65311
-0.214021
-1.67271
-0.165613
-1.68995
-0.0952014
-1.68536
-1.65686
-0.123789
-1.66648
-0.201626
-1.66084
-0.247333
-1.70238
-0.277117
-1.74171
-0.29807
-1.77448
-0.313465
-1.80097
-0.325065
-1.82204
-0.333911
-1.83872
-0.340639
-1.852
-0.34568
-1.86277
-0.349297
-1.87173
-0.351781
-1.87961
-0.353289
-1.88693
-0.354023
-1.89414
-0.354141
-1.90179
-0.353869
-1.9101
-0.35342