/*--------------------------------*- C++ -*----------------------------------*\
| =========                 |                                                 |
| \\      /  F ield         | OpenFOAM: The Open Source CFD Toolbox           |
|  \\    /   O peration     | Version:  v1912                                 |
|   \\  /    A nd           | Website:  www.openfoam.com                      |
|    \\/     M anipulation  |                                                 |
\*---------------------------------------------------------------------------*/
FoamFile
{
    version     2.0;
    format      ascii;
    class       volScalarField;
    location    "31536000";
    object      psi;
}
// * * * * * * * * * * * * * * * * * * * * * * * * * * * * * * * * * * * * * //

dimensions      [0 1 0 0 0 0 0];


internalField   nonuniform List<scalar> 
4250
(
-154.223
-157.884
-157.913
-157.959
-157.966
-157.974
-157.976
-157.976
-157.976
-157.977
-157.977
-157.977
-157.977
-157.977
-157.977
-157.977
-157.977
-157.977
-157.976
-157.976
-157.972
-157.957
-157.917
-157.78
-156.719
-139.465
-11.8208
-9.53717
-7.94822
-6.73408
-5.73363
-4.87538
-4.13138
-3.49171
-2.94805
-2.49128
-2.10963
-1.79243
-1.52913
-1.31006
-1.12766
-0.975354
-0.847421
-0.739691
-0.648199
-0.571
-0.506266
-0.451204
-0.404073
-0.333
-143.302
-156.901
-157.565
-157.867
-157.901
-157.952
-157.963
-157.964
-157.965
-157.966
-157.967
-157.967
-157.967
-157.967
-157.967
-157.967
-157.967
-157.967
-157.965
-157.963
-157.942
-157.864
-157.664
-157.141
-153.627
-117.092
-13.6682
-9.52042
-7.91461
-6.70959
-5.71692
-4.86553
-4.12803
-3.49335
-2.95371
-2.49936
-2.11968
-1.80386
-1.54109
-1.32267
-1.14064
-0.988508
-0.860299
-0.752037
-0.660254
-0.582033
-0.516461
-0.460135
-0.4131
-0.347675
-106.556
-151.793
-155.588
-157.31
-157.452
-157.76
-157.83
-157.837
-157.841
-157.844
-157.846
-157.847
-157.848
-157.849
-157.849
-157.849
-157.848
-157.846
-157.841
-157.83
-157.717
-157.31
-156.332
-154.232
-141.891
-90.1676
-15.0842
-9.44416
-7.8099
-6.62191
-5.64926
-4.81233
-4.08764
-3.46317
-2.93122
-2.48334
-2.10892
-1.79664
-1.53653
-1.32007
-1.13945
-0.988285
-0.860617
-0.752409
-0.660377
-0.581695
-0.515169
-0.458073
-0.410081
-0.349802
-65.4498
-135.77
-147.649
-154.698
-155.289
-156.814
-157.178
-157.204
-157.217
-157.227
-157.234
-157.238
-157.241
-157.243
-157.244
-157.244
-157.241
-157.234
-157.221
-157.183
-156.663
-154.828
-151.095
-143.296
-110.116
-55.145
-15.8201
-9.32598
-7.65891
-6.49617
-5.54567
-4.7295
-4.02173
-3.41019
-2.88985
-2.45045
-2.08209
-1.77496
-1.51921
-1.3057
-1.12727
-0.977341
-0.850779
-0.743264
-0.651001
-0.572178
-0.505081
-0.445779
-0.396109
-0.342091
-50.4034
-108.839
-128.928
-144.697
-147.487
-153.044
-154.394
-154.497
-154.546
-154.582
-154.607
-154.624
-154.636
-154.644
-154.649
-154.651
-154.645
-154.624
-154.578
-154.46
-152.697
-146.137
-137.046
-114.759
-77.8573
-44.1018
-15.9817
-9.18194
-7.48358
-6.34844
-5.42391
-4.62993
-3.94051
-3.3453
-2.83661
-2.40687
-2.04631
-1.74512
-1.49353
-1.28354
-1.10776
-0.959774
-0.834263
-0.727378
-0.63546
-0.556662
-0.488007
-0.425581
-0.375181
-0.326322
-41.3594
-75.2656
-108.708
-119.994
-130.221
-141.49
-144.344
-144.81
-145.089
-145.283
-145.414
-145.5
-145.561
-145.606
-145.64
-145.657
-145.639
-145.548
-145.313
-144.807
-141.296
-126.946
-113.654
-88.7317
-62.8351
-37.9132
-15.9171
-9.02011
-7.29929
-6.19194
-5.29478
-4.52387
-3.85346
-3.27367
-2.77733
-2.35807
-2.00548
-1.71014
-1.46346
-1.25722
-1.0839
-0.937937
-0.813703
-0.707635
-0.616379
-0.537432
-0.46611
-0.40139
-0.351145
-0.309338
-35.3697
-58.6206
-81.1716
-98.3162
-111.668
-117.19
-120.141
-122.038
-123.288
-124.119
-124.658
-125.007
-125.252
-125.435
-125.572
-125.646
-125.586
-125.236
-124.271
-122.176
-118.448
-109.334
-87.8489
-71.7501
-52.7081
-33.7476
-15.7215
-8.8536
-7.11478
-6.03324
-5.16238
-4.41584
-3.76451
-3.20019
-2.71688
-2.30677
-1.96236
-1.6734
-1.43163
-1.22875
-1.05793
-0.913851
-0.791183
-0.685885
-0.595626
-0.51602
-0.44248
-0.378809
-0.332868
-0.298372
-30.9344
-48.4015
-64.3161
-78.4462
-87.6384
-94.1298
-99.1048
-102.411
-104.463
-105.765
-106.581
-107.103
-107.466
-107.736
-107.94
-108.069
-108.01
-107.555
-106.162
-102.82
-96.8343
-88.2027
-71.4145
-59.4852
-45.2611
-30.5868
-15.4339
-8.68134
-6.93319
-5.87664
-5.03276
-4.30802
-3.67556
-3.12652
-2.65541
-2.25608
-1.91862
-1.63592
-1.39857
-1.19942
-1.03141
-0.88883
-0.767655
-0.66394
-0.574653
-0.494612
-0.419754
-0.358291
-0.319881
-0.29292
-27.4861
-41.342
-53.3044
-63.8208
-70.7434
-76.714
-81.2064
-84.0689
-85.815
-86.8859
-87.5651
-88.003
-88.3122
-88.5543
-88.7557
-88.9293
-88.9852
-88.7559
-87.8109
-85.1926
-79.8525
-71.973
-59.9054
-50.5233
-39.566
-28.0094
-15.0835
-8.50911
-6.75579
-5.72471
-4.90583
-4.20335
-3.58916
-3.05488
-2.59617
-2.20551
-1.87581
-1.5987
-1.36604
-1.1701
-1.00454
-0.864223
-0.744901
-0.64322
-0.55443
-0.473987
-0.398458
-0.342179
-0.311105
-0.289577
-24.7307
-36.0673
-45.5757
-53.437
-58.9883
-63.8731
-67.3512
-69.5
-70.8048
-71.6177
-72.1441
-72.4782
-72.7228
-72.9198
-73.1072
-73.267
-73.3749
-73.2728
-72.6883
-70.9149
-66.9357
-60.3632
-51.4446
-43.8134
-35.114
-25.8003
-14.6859
-8.3374
-6.58521
-5.57722
-4.78367
-4.10266
-3.50599
-2.98595
-2.53852
-2.15675
-1.83449
-1.56272
-1.33415
-1.14135
-0.978255
-0.840193
-0.723332
-0.624254
-0.536229
-0.454918
-0.379867
-0.331306
-0.306049
-0.288402
-22.4894
-31.9419
-39.7919
-45.8711
-50.4846
-54.3758
-57.0031
-58.6264
-59.6224
-60.2624
-60.6827
-60.9496
-61.1552
-61.3188
-61.4679
-61.6199
-61.73
-61.6913
-61.2955
-60.0553
-57.1704
-51.8884
-44.9648
-38.6517
-31.5639
-23.8767
-14.2612
-8.16748
-6.42234
-5.43639
-4.66708
-4.00576
-3.42533
-2.91966
-2.48306
-2.11036
-1.79423
-1.52805
-1.30344
-1.11373
-0.953569
-0.818011
-0.704489
-0.60745
-0.51987
-0.438062
-0.365913
-0.323697
-0.303246
-0.287875
-20.6379
-28.6254
-35.2673
-40.158
-44.0434
-47.1433
-49.1932
-50.4821
-51.2896
-51.8248
-52.1638
-52.39
-52.5696
-52.7008
-52.8375
-52.9651
-53.0658
-53.0574
-52.7596
-51.8271
-49.6739
-45.4651
-39.8493
-34.5737
-28.6798
-22.1786
-13.813
-7.99815
-6.26516
-5.30064
-4.55466
-3.91246
-3.34922
-2.85592
-2.42976
-2.06578
-1.75648
-1.49478
-1.27443
-1.08785
-0.930496
-0.798258
-0.688014
-0.593038
-0.505518
-0.423299
-0.354313
-0.318931
-0.301547
-0.28926
-19.0835
-25.9033
-31.6081
-35.6901
-38.9796
-41.4849
-43.1567
-44.2303
-44.9127
-45.368
-45.6621
-45.8634
-46.0067
-46.1288
-46.249
-46.3573
-46.4469
-46.4442
-46.2155
-45.4638
-43.7604
-40.3889
-35.7057
-31.2655
-26.2878
-20.6812
-13.3575
-7.83059
-6.11459
-5.17198
-4.44649
-3.82435
-3.276
-2.796
-2.37974
-2.02304
-1.72035
-1.46385
-1.2469
-1.06394
-0.9098
-0.781619
-0.674903
-0.581179
-0.493423
-0.410959
-0.346124
-0.315729
-0.30146
-0.289901
-17.7543
-23.6243
-28.579
-32.0782
-34.8795
-36.9525
-38.3652
-39.2889
-39.8906
-40.278
-40.5395
-40.7103
-40.8369
-40.9397
-41.0441
-41.141
-41.2211
-41.2273
-41.0391
-40.4097
-39.0142
-36.2699
-32.2935
-28.5288
-24.2721
-19.3513
-12.9018
-7.66646
-5.97013
-5.04829
-4.34477
-3.74029
-3.20705
-2.73909
-2.33236
-1.98314
-1.68633
-1.43451
-1.22177
-1.04191
-0.891632
-0.767906
-0.664381
-0.571234
-0.483412
-0.4003
-0.341751
-0.314353
-0.300997
-0.2904
-16.6054
-21.6977
-26.0426
-29.1045
-31.4986
-33.2568
-34.4782
-35.285
-35.8151
-36.1591
-36.3838
-36.5404
-36.6484
-36.7359
-36.8287
-36.9092
-36.9816
-37.0021
-36.849
-36.309
-35.1248
-32.846
-29.4333
-26.2133
-22.5348
-18.175
-12.4459
-7.50233
-5.83131
-4.92979
-4.24662
-3.66007
-3.14143
-2.6851
-2.28755
-1.94606
-1.65446
-1.40766
-1.19844
-1.0227
-0.876945
-0.757374
-0.656157
-0.563301
-0.475426
-0.392071
-0.337399
-0.313707
-0.302361
-0.292422
-15.5992
-20.0475
-23.882
-26.5924
-28.6682
-30.1821
-31.2571
-31.9717
-32.443
-32.7505
-32.9446
-33.0797
-33.1725
-33.2565
-33.3288
-33.407
-33.473
-33.4919
-33.3718
-32.9141
-31.8917
-29.9627
-27.0155
-24.2247
-21.0187
-17.1251
-12.0034
-7.3429
-5.699
-4.81781
-4.15361
-3.58349
-3.07899
-2.63391
-2.24525
-1.91077
-1.62521
-1.38255
-1.17783
-1.00622
-0.865105
-0.750114
-0.650301
-0.557429
-0.469196
-0.386229
-0.335548
-0.314483
-0.302964
-0.293985
-14.7011
-18.618
-22.0215
-24.4465
-26.2551
-27.5844
-28.5465
-29.1842
-29.5972
-29.8678
-30.0418
-30.159
-30.2473
-30.3117
-30.3813
-30.4515
-30.5121
-30.5336
-30.4367
-30.0487
-29.155
-27.4906
-24.9333
-22.493
-19.6751
-16.1853
-11.5686
-7.18381
-5.57148
-4.71029
-4.06453
-3.51116
-3.02029
-2.58555
-2.20595
-1.87824
-1.59814
-1.36026
-1.15963
-0.992684
-0.856634
-0.744957
-0.646393
-0.553365
-0.464948
-0.382352
-0.334921
-0.315089
-0.305036
-0.296322
-13.8923
-17.3693
-20.4055
-22.584
-24.1749
-25.3652
-26.2233
-26.7985
-27.169
-27.4038
-27.5581
-27.6605
-27.7375
-27.8007
-27.8587
-27.9165
-27.9755
-28.0028
-27.9245
-27.5958
-26.8105
-25.3606
-23.1262
-20.9638
-18.469
-15.3366
-11.1491
-7.02916
-5.44964
-4.60711
-3.98005
-3.44205
-2.96446
-2.54077
-2.16901
-1.84794
-1.57327
-1.34026
-1.14425
-0.982086
-0.850994
-0.741973
-0.644002
-0.55085
-0.462275
-0.379913
-0.335406
-0.31647
-0.307216
-0.298737
-13.1563
-16.2706
-18.992
-20.9578
-22.3713
-23.4395
-24.2136
-24.7236
-25.0576
-25.2711
-25.407
-25.497
-25.5647
-25.6202
-25.6739
-25.7296
-25.7807
-25.8077
-25.7472
-25.4682
-24.7837
-23.4971
-21.5375
-19.6089
-17.3814
-14.5658
-10.7459
-6.87637
-5.33186
-4.50862
-3.899
-3.37677
-2.91203
-2.49797
-2.1349
-1.82029
-1.55099
-1.32277
-1.13106
-0.974468
-0.847858
-0.74099
-0.643034
-0.549641
-0.46113
-0.379454
-0.337754
-0.318587
-0.308854
-0.299603
-12.4844
-15.2902
-17.7437
-19.5181
-20.7894
-21.7578
-22.4553
-22.9136
-23.2105
-23.4002
-23.5271
-23.607
-23.6671
-23.7162
-23.7638
-23.8137
-23.8607
-23.8885
-23.8428
-23.6043
-23.0078
-21.8564
-20.1302
-18.3933
-16.3955
-13.8555
-10.3568
-6.72528
-5.21906
-4.41427
-3.82205
-3.31509
-2.86217
-2.45812
-2.103
-1.79478
-1.53082
-1.30754
-1.12085
-0.969332
-0.84704
-0.741388
-0.643807
-0.550086
-0.461138
-0.380395
-0.339193
-0.320504
-0.311964
-0.302962
-11.8651
-14.411
-16.6349
-18.2421
-19.3918
-20.2663
-20.8977
-21.3123
-21.5838
-21.7538
-21.8677
-21.9394
-21.9932
-22.037
-22.0795
-22.1244
-22.1675
-22.1951
-22.1604
-21.9599
-21.4339
-20.4073
-18.8761
-17.2999
-15.4931
-13.1986
-9.98209
-6.57744
-5.10973
-4.3241
-3.74808
-3.2558
-2.81482
-2.4211
-2.07322
-1.77161
-1.51317
-1.29449
-1.11312
-0.966749
-0.847596
-0.743181
-0.645732
-0.552068
-0.46239
-0.381428
-0.341069
-0.322904
-0.314028
-0.305188
-11.295
-13.6161
-15.6402
-17.0987
-18.1463
-18.9427
-19.5155
-19.8938
-20.1337
-20.2927
-20.3959
-20.4608
-20.5094
-20.5487
-20.5869
-20.6285
-20.6722
-20.695
-20.6669
-20.4936
-20.0306
-19.1139
-17.7445
-16.3108
-14.6711
-12.5872
-9.62418
-6.43161
-5.00478
-4.23711
-3.67775
-3.1995
-2.77087
-2.38619
-2.04596
-1.75037
-1.49757
-1.28393
-1.10802
-0.966219
-0.849737
-0.745962
-0.648849
-0.554977
-0.46495
-0.383848
-0.344543
-0.325676
-0.3167
-0.307361
-10.7668
-12.8928
-14.7401
-16.0716
-17.0276
-17.7586
-18.2758
-18.6185
-18.8415
-18.9866
-19.0809
-19.1401
-19.1847
-19.2248
-19.2592
-19.2959
-19.3321
-19.3577
-19.3316
-19.18
-18.7741
-17.9501
-16.7204
-15.4119
-13.9207
-12.0161
-9.28281
-6.29015
-4.90282
-4.15401
-3.61
-3.14599
-2.72847
-2.35328
-2.02113
-1.73174
-1.48396
-1.27546
-1.10495
-0.967735
-0.853005
-0.750073
-0.652891
-0.558738
-0.468551
-0.387372
-0.346306
-0.328964
-0.319875
-0.310065
-10.282
-12.2309
-13.9264
-15.1404
-16.0235
-16.6878
-17.1612
-17.4738
-17.6825
-17.813
-17.9005
-17.9572
-17.9977
-18.0312
-18.0657
-18.099
-18.1322
-18.1564
-18.1349
-18.0023
-17.6414
-16.8999
-15.7882
-14.5951
-13.2307
-11.4819
-8.9536
-6.14944
-4.80474
-4.07364
-3.54545
-3.09459
-2.68869
-2.32281
-1.99759
-1.71473
-1.4722
-1.2694
-1.10372
-0.970542
-0.857572
-0.755079
-0.657844
-0.563707
-0.472951
-0.392361
-0.349938
-0.332018
-0.32287
-0.313924
-9.83239
-11.6255
-13.1847
-14.2981
-15.1092
-15.718
-16.1528
-16.4407
-16.6334
-16.7566
-16.8368
-16.8912
-16.9284
-16.9579
-16.9861
-17.0202
-17.0511
-17.0736
-17.056
-16.9344
-16.6125
-15.9504
-14.9392
-13.8429
-12.5945
-10.982
-8.64064
-6.01228
-4.70925
-3.99671
-3.4831
-3.04587
-2.65136
-2.29408
-1.97676
-1.69966
-1.46253
-1.26477
-1.10446
-0.974294
-0.863084
-0.760986
-0.663772
-0.56955
-0.478474
-0.396007
-0.353848
-0.335241
-0.326572
-0.31663
-9.41525
-11.0699
-12.5026
-13.5298
-14.2793
-14.8354
-15.2349
-15.5035
-15.682
-15.7963
-15.8707
-15.921
-15.9552
-15.9862
-16.0119
-16.0394
-16.0681
-16.0889
-16.074
-15.9656
-15.6761
-15.0795
-14.1596
-13.1569
-12.0085
-10.5136
-8.34154
-5.87869
-4.61724
-3.92209
-3.42355
-2.99894
-2.61568
-2.26751
-1.95701
-1.68602
-1.45481
-1.26216
-1.10629
-0.979199
-0.868921
-0.767329
-0.67046
-0.576117
-0.484697
-0.401355
-0.35819
-0.339017
-0.329568
-0.319967
-9.03203
-10.556
-11.8773
-12.8283
-13.519
-14.0322
-14.4004
-14.653
-14.8152
-14.9251
-14.9941
-15.0408
-15.0723
-15.097
-15.1241
-15.1492
-15.1749
-15.1953
-15.1831
-15.0861
-14.8217
-14.2839
-13.4413
-12.5216
-11.4664
-10.0746
-8.0578
-5.74741
-4.52746
-3.85048
-3.36582
-2.95433
-2.58152
-2.2424
-1.93923
-1.67431
-1.44852
-1.26113
-1.10977
-0.984845
-0.87568
-0.774434
-0.677584
-0.583163
-0.491391
-0.407668
-0.362316
-0.342781
-0.333198
-0.323284
-8.67528
-10.0819
-11.3021
-12.1807
-12.8198
-13.2953
-13.636
-13.8707
-14.025
-14.1237
-14.1913
-14.2346
-14.2637
-14.2862
-14.3106
-14.3339
-14.3576
-14.377
-14.3673
-14.2773
-14.0378
-13.5507
-12.7805
-11.934
-10.9623
-9.66532
-7.78689
-5.61847
-4.44076
-3.78081
-3.31052
-2.91118
-2.54935
-2.21916
-1.92324
-1.66397
-1.44358
-1.26135
-1.11381
-0.991406
-0.882705
-0.781989
-0.68515
-0.590944
-0.498853
-0.414083
-0.367972
-0.346784
-0.336526
-0.332096
-8.34389
-9.64125
-10.769
-11.5867
-12.1774
-12.6169
-12.9362
-13.1545
-13.2981
-13.3899
-13.4527
-13.4928
-13.5197
-13.5403
-13.563
-13.584
-13.6084
-13.6243
-13.6169
-13.5367
-13.3193
-12.8756
-12.1709
-11.388
-10.4915
-9.28156
-7.52821
-5.49311
-4.35594
-3.71373
-3.25669
-2.87002
-2.5184
-2.1971
-1.90793
-1.65525
-1.43987
-1.26256
-1.11876
-0.998276
-0.890646
-0.789862
-0.693392
-0.599189
-0.506818
-0.421347
-0.372186
-0.350978
-0.340223
-0.330123
-8.03458
-9.23279
-10.2761
-11.0342
-11.5827
-11.9914
-12.29
-12.4932
-12.6267
-12.7152
-12.7705
-12.8077
-12.8356
-12.8545
-12.8753
-12.8944
-12.9146
-12.9322
-12.9269
-12.8559
-12.6554
-12.2492
-11.6043
-10.88
-10.0501
-8.92084
-7.28107
-5.37119
-4.27285
-3.64823
-3.20493
-2.83
-2.48915
-2.1761
-1.89458
-1.64752
-1.43757
-1.26457
-1.12404
-1.00522
-0.898296
-0.798148
-0.701852
-0.607772
-0.515493
-0.42904
-0.377634
-0.355401
-0.345678
-0.333813
-7.74432
-8.85311
-9.81712
-10.5246
-11.0333
-11.4149
-11.6924
-11.8831
-12.0073
-12.0896
-12.142
-12.1782
-12.2014
-12.2187
-12.2378
-12.2553
-12.2768
-12.2906
-12.287
-12.2245
-12.0401
-11.6692
-11.0786
-10.4058
-9.6327
-8.5808
-7.04636
-5.25022
-4.19228
-3.58415
-3.15433
-2.79163
-2.46084
-2.15659
-1.88166
-1.64064
-1.43608
-1.26757
-1.12992
-1.01252
-0.906219
-0.806405
-0.710324
-0.616723
-0.524456
-0.437134
-0.383116
-0.359841
-0.347966
-0.337094
-7.47049
-8.49911
-9.39086
-10.049
-10.5219
-10.88
-11.1397
-11.3155
-11.4338
-11.5105
-11.5584
-11.5906
-11.6146
-11.6305
-11.648
-11.664
-11.6815
-11.6969
-11.6948
-11.637
-11.4732
-11.1307
-10.587
-9.96236
-9.24191
-8.25933
-6.82166
-5.13254
-4.11313
-3.52216
-3.10474
-2.75377
-2.43343
-2.13789
-1.87004
-1.63484
-1.4352
-1.27101
-1.13596
-1.01982
-0.914087
-0.814601
-0.719078
-0.625708
-0.533594
-0.445476
-0.388812
-0.364205
-0.352137
-0.340863
-7.20941
-8.16612
-8.99402
-9.6063
-10.047
-10.381
-10.6232
-10.7887
-10.899
-10.9706
-11.0157
-11.048
-11.0677
-11.084
-11.0984
-11.114
-11.1315
-11.1462
-11.1424
-11.094
-10.9415
-10.6278
-10.1306
-9.5446
-8.87171
-7.95469
-6.60639
-5.01804
-4.03619
-3.4613
-3.05677
-2.71727
-2.40705
-2.11987
-1.85911
-1.62936
-1.43497
-1.27477
-1.14206
-1.02707
-0.922199
-0.823043
-0.727782
-0.634978
-0.543067
-0.454198
-0.394792
-0.368934
-0.361615
-0.345999
-6.96291
-7.8537
-8.6216
-9.19128
-9.60503
-9.91647
-10.1436
-10.2984
-10.4015
-10.4685
-10.5104
-10.5411
-10.5595
-10.5753
-10.5878
-10.6036
-10.6181
-10.6319
-10.6287
-10.5856
-10.4487
-10.1588
-9.70097
-9.15483
-8.52482
-7.66555
-6.4
-4.90447
-3.9597
-3.40149
-3.00955
-2.68102
-2.38128
-2.10292
-1.84878
-1.6248
-1.43514
-1.27888
-1.14845
-1.03452
-0.930177
-0.831671
-0.736698
-0.644198
-0.552553
-0.46335
-0.401205
-0.373705
-0.360203
-0.348287
-6.72717
-7.55974
-8.27466
-8.80359
-9.19252
-9.48287
-9.69431
-9.83889
-9.93547
-9.99847
-10.0402
-10.0666
-10.0862
-10.0987
-10.1123
-10.1244
-10.1401
-10.1509
-10.1501
-10.1092
-9.98596
-9.71986
-9.2978
-8.78665
-8.19655
-7.39089
-6.20208
-4.79412
-3.88586
-3.34339
-2.963
-2.64585
-2.35644
-2.08635
-1.83937
-1.62111
-1.43572
-1.28296
-1.15457
-1.04167
-0.937879
-0.839788
-0.745467
-0.653369
-0.56233
-0.472446
-0.407725
-0.378551
-0.366123
-0.352075
-6.5034
-7.28082
-7.94588
-8.44044
-8.8045
-9.07717
-9.27433
-9.40971
-9.50046
-9.56163
-9.5991
-9.62623
-9.64232
-9.65617
-9.66645
-9.67979
-9.69192
-9.70369
-9.70114
-9.6642
-9.55269
-9.30838
-8.9165
-8.44037
-7.88708
-7.1299
-6.01225
-4.68599
-3.81251
-3.28616
-2.9177
-2.61101
-2.33127
-2.07003
-1.83022
-1.61728
-1.43682
-1.28684
-1.16029
-1.04836
-0.945504
-0.847852
-0.754002
-0.662325
-0.57178
-0.481863
-0.413882
-0.38395
-0.368388
-0.355923
-6.28946
-7.01876
-7.63804
-8.09989
-8.44058
-8.69477
-8.88103
-9.00812
-9.09363
-9.15066
-9.18673
-9.21232
-9.2274
-9.24029
-9.2497
-9.26193
-9.273
-9.28385
-9.28142
-9.24809
-9.14618
-8.92146
-8.5592
-8.11416
-7.5951
-6.88186
-5.83145
-4.58095
-3.74024
-3.22973
-2.87221
-2.57676
-2.3068
-2.05383
-1.82129
-1.61404
-1.43752
-1.29082
-1.16555
-1.05489
-0.952281
-0.855468
-0.762134
-0.671298
-0.581307
-0.491378
-0.420906
-0.388481
-0.373012
-0.359993
-6.08662
-6.76952
-7.34751
-7.77978
-8.09845
-8.33567
-8.51018
-8.63174
-8.71242
-8.7653
-8.80035
-8.82245
-8.83862
-8.84906
-8.85924
-8.87045
-8.88054
-8.89057
-8.88827
-8.85625
-8.76303
-8.55751
-8.22013
-7.80624
-7.31902
-6.64603
-5.65667
-4.47716
-3.66992
-3.17423
-2.82809
-2.54258
-2.28235
-2.03816
-1.81237
-1.61084
-1.43854
-1.29413
-1.17073
-1.06089
-0.959001
-0.862564
-0.770063
-0.679816
-0.59055
-0.500905
-0.427976
-0.393342
-0.376437
-0.365172
-5.89428
-6.53339
-7.07187
-7.47654
-7.7744
-7.99793
-8.16183
-8.27639
-8.35253
-8.40438
-8.43634
-8.45827
-8.4715
-8.48267
-8.49249
-8.50081
-8.51197
-8.52076
-8.51919
-8.48937
-8.40264
-8.21439
-7.90164
-7.51321
-7.05716
-6.4216
-5.49011
-4.37658
-3.60066
-3.11981
-2.78441
-2.50881
-2.25803
-2.02242
-1.80339
-1.60758
-1.4394
-1.2975
-1.17547
-1.06641
-0.965275
-0.869488
-0.777233
-0.687917
-0.599386
-0.510499
-0.435216
-0.398869
-0.380662
-0.367562
-5.70999
-6.30817
-6.81089
-7.19029
-7.47031
-7.67981
-7.83404
-7.94204
-8.01384
-8.06274
-8.09391
-8.11347
-8.12771
-8.13624
-8.14527
-8.1544
-8.16306
-8.17173
-8.16999
-8.14236
-8.06201
-7.8902
-7.59867
-7.23697
-6.80797
-6.20774
-5.33007
-4.27812
-3.5324
-3.06619
-2.74065
-2.47504
-2.23373
-2.0065
-1.79475
-1.60419
-1.44007
-1.30055
-1.17978
-1.07143
-0.97084
-0.875876
-0.784168
-0.695506
-0.608082
-0.519629
-0.442147
-0.403362
-0.384466
-0.37113
-5.53579
-6.09585
-6.56218
-6.91947
-7.18128
-7.37801
-7.52496
-7.6267
-7.6943
-7.74035
-7.76966
-7.78803
-7.80127
-7.80924
-7.81755
-7.82616
-7.83378
-7.84189
-7.84058
-7.81525
-7.7406
-7.58158
-7.31158
-6.97278
-6.57012
-6.00357
-5.17498
-4.18171
-3.46511
-3.01317
-2.69779
-2.44122
-2.20939
-1.99035
-1.78545
-1.60103
-1.44048
-1.30328
-1.18369
-1.07599
-0.976244
-0.881675
-0.790811
-0.702648
-0.616045
-0.528719
-0.449604
-0.408495
-0.388498
-0.374772
-5.36841
-5.89273
-6.32772
-6.66116
-6.90775
-7.09445
-7.23121
-7.32689
-7.39207
-7.43367
-7.46121
-7.48014
-7.49093
-7.4999
-7.50754
-7.51369
-7.52232
-7.52988
-7.52906
-7.50616
-7.43516
-7.28896
-7.03826
-6.72112
-6.34114
-5.80824
-5.02678
-4.08728
-3.39873
-2.96071
-2.65454
-2.40733
-2.18424
-1.97387
-1.77633
-1.59722
-1.44061
-1.30565
-1.18753
-1.08047
-0.981169
-0.887092
-0.796908
-0.709551
-0.623794
-0.537459
-0.457041
-0.412933
-0.392301
-0.378299
-5.20919
-5.69839
-6.10361
-6.41725
-6.64832
-6.82341
-6.95298
-7.04419
-7.10395
-7.14462
-7.17049
-7.18665
-7.19835
-7.20552
-7.21207
-7.21924
-7.22712
-7.23249
-7.23339
-7.21172
-7.14631
-7.0111
-6.78
-6.48102
-6.12322
-5.621
-4.88278
-3.99475
-3.334
-2.9088
-2.61216
-2.37393
-2.1593
-1.95748
-1.76687
-1.59319
-1.44041
-1.30771
-1.19068
-1.08417
-0.985394
-0.892115
-0.802396
-0.715719
-0.63108
-0.545786
-0.464287
-0.419216
-0.3958
-0.381548
-5.05472
-5.51328
-5.89037
-6.18373
-6.40097
-6.56663
-6.6888
-6.77428
-6.83032
-6.86853
-6.89285
-6.90802
-6.919
-6.92675
-6.93206
-6.93817
-6.94531
-6.95174
-6.95169
-6.93216
-6.87265
-6.74689
-6.53271
-6.25169
-5.91309
-5.43997
-4.74483
-3.90408
-3.26937
-2.85745
-2.57004
-2.33989
-2.13402
-1.94014
-1.75696
-1.58899
-1.44023
-1.30969
-1.19341
-1.08783
-0.98938
-0.896621
-0.807526
-0.721664
-0.637873
-0.55374
-0.471304
-0.423244
-0.399382
-0.384663
-4.90421
-5.33518
-5.68708
-5.96121
-6.16565
-6.32293
-6.4374
-6.51617
-6.57005
-6.606
-6.6289
-6.64317
-6.65348
-6.66071
-6.66555
-6.67107
-6.6775
-6.68329
-6.68337
-6.66616
-6.61122
-6.49388
-6.29682
-6.03231
-5.71181
-5.26715
-4.61046
-3.81511
-3.20564
-2.80667
-2.5282
-2.30637
-2.1084
-1.92274
-1.74652
-1.58442
-1.43923
-1.31095
-1.19617
-1.09117
-0.993097
-0.900705
-0.812314
-0.72722
-0.643923
-0.561205
-0.478525
-0.427267
-0.402973
-0.387814
-4.75915
-5.16409
-5.49158
-5.74759
-5.9415
-6.08925
-6.1963
-6.27148
-6.32215
-6.35462
-6.37684
-6.39113
-6.40084
-6.40614
-6.4116
-6.41697
-6.42271
-6.42673
-6.42782
-6.41259
-6.36291
-6.25415
-6.0713
-5.82153
-5.51909
-5.09971
-4.48047
-3.72738
-3.14315
-2.75649
-2.48666
-2.27226
-2.08246
-1.90441
-1.73549
-1.57888
-1.43776
-1.31186
-1.1983
-1.09388
-0.996559
-0.904537
-0.81662
-0.732062
-0.649863
-0.568292
-0.485586
-0.430624
-0.408884
-0.390692
-4.61687
-4.99927
-5.30434
-5.54474
-5.72755
-5.86601
-5.96609
-6.03667
-6.08443
-6.11647
-6.13692
-6.14963
-6.15878
-6.16509
-6.17012
-6.17357
-6.17866
-6.18304
-6.18277
-6.1691
-6.12444
-6.02395
-5.85389
-5.61963
-5.33456
-4.9385
-4.35462
-3.64219
-3.08169
-2.70693
-2.44485
-2.2387
-2.0562
-1.88554
-1.72384
-1.57314
-1.43617
-1.31268
-1.20015
-1.09673
-0.999755
-0.90807
-0.820767
-0.73691
-0.655423
-0.57482
-0.492586
-0.434585
-0.411375
-0.393535
-4.47874
-4.83901
-5.12456
-5.3494
-5.52161
-5.65109
-5.74601
-5.81245
-5.85758
-5.88792
-5.90729
-5.91931
-5.92795
-5.93385
-5.93847
-5.94254
-5.94598
-5.94965
-5.94896
-5.93766
-5.89634
-5.80257
-5.64523
-5.42617
-5.15654
-4.78316
-4.23265
-3.55876
-3.02078
-2.65755
-2.40398
-2.20461
-2.02964
-1.86654
-1.71153
-1.56634
-1.43361
-1.31282
-1.20199
-1.09904
-1.00247
-0.911375
-0.824556
-0.741146
-0.6607
-0.581061
-0.499369
-0.438603
-0.411924
-0.395735
-4.34283
-4.68401
-4.95156
-5.16219
-5.32417
-5.44559
-5.53416
-5.5975
-5.64084
-5.66834
-5.68796
-5.69933
-5.70748
-5.713
-5.71682
-5.7199
-5.72382
-5.72684
-5.72564
-5.71379
-5.67776
-5.59186
-5.44477
-5.24048
-4.98677
-4.63332
-4.11432
-3.47624
-2.96029
-2.60908
-2.36325
-2.17055
-2.0028
-1.84657
-1.69855
-1.55884
-1.43043
-1.31237
-1.20314
-1.10107
-1.00538
-0.914601
-0.828116
-0.745083
-0.665335
-0.58704
-0.506359
-0.442625
-0.414339
-0.397967
-4.211
-4.53395
-4.7837
-4.98133
-5.13449
-5.24798
-5.3323
-5.39177
-5.43224
-5.45949
-5.47686
-5.48882
-5.49527
-5.50042
-5.50433
-5.50787
-5.51131
-5.51331
-5.51207
-5.50061
-5.46675
-5.38846
-5.25164
-5.06073
-4.82127
-4.48758
-3.99851
-3.39536
-2.90109
-2.56138
-2.32264
-2.13651
-1.97569
-1.82608
-1.68446
-1.55105
-1.42658
-1.31103
-1.20365
-1.10281
-1.00772
-0.917329
-0.83104
-0.748827
-0.669739
-0.592519
-0.513032
-0.446765
-0.416831
-0.400165
-4.08179
-4.38757
-4.62168
-4.8074
-4.95084
-5.05774
-5.13673
-5.19401
-5.23231
-5.25807
-5.27446
-5.28575
-5.29178
-5.29659
-5.30018
-5.30337
-5.3064
-5.30839
-5.30631
-5.29507
-5.26403
-5.19265
-5.06573
-4.88742
-4.66216
-4.34658
-3.88627
-3.31602
-2.84251
-2.51361
-2.28215
-2.10249
-1.94781
-1.80508
-1.67012
-1.54208
-1.42166
-1.30953
-1.20399
-1.10431
-1.0098
-0.919793
-0.834094
-0.752253
-0.673818
-0.597469
-0.51983
-0.450628
-0.418875
-0.401746
-3.95611
-4.24571
-4.46451
-4.63978
-4.77389
-4.87441
-4.94992
-5.00301
-5.03969
-5.06339
-5.07992
-5.0894
-5.09617
-5.10063
-5.10393
-5.10681
-5.10897
-5.11002
-5.10886
-5.09782
-5.06902
-5.00354
-4.88543
-4.71929
-4.50706
-4.20986
-3.77626
-3.23807
-2.78475
-2.46633
-2.2419
-2.06847
-1.91967
-1.78358
-1.65468
-1.53198
-1.41643
-1.30703
-1.20351
-1.10544
-1.01172
-0.922168
-0.836909
-0.755486
-0.677497
-0.60224
-0.525865
-0.454401
-0.420887
-0.403465
-3.83373
-4.10808
-4.31268
-4.47688
-4.60317
-4.6975
-4.76915
-4.81921
-4.85421
-4.87696
-4.89137
-4.90132
-4.90655
-4.91069
-4.91371
-4.91632
-4.91874
-4.92018
-4.91783
-4.90711
-4.88015
-4.82078
-4.71043
-4.55647
-4.3563
-4.07609
-3.66931
-3.16065
-2.72665
-2.41888
-2.20132
-2.03389
-1.89126
-1.76141
-1.63854
-1.5215
-1.41003
-1.30384
-1.20247
-1.10596
-1.01314
-0.924502
-0.83962
-0.758439
-0.680888
-0.60665
-0.531835
-0.458661
-0.422877
-0.404851
-3.71341
-3.97348
-4.16441
-4.31922
-4.43724
-4.5272
-4.59447
-4.64188
-4.67441
-4.69566
-4.70928
-4.71857
-4.72344
-4.72728
-4.73004
-4.7324
-4.73459
-4.73589
-4.73367
-4.72347
-4.6981
-4.64413
-4.54245
-4.39784
-4.20951
-3.94586
-3.56397
-3.08437
-2.66974
-2.37234
-2.1609
-1.99926
-1.86255
-1.73858
-1.62132
-1.50977
-1.40279
-1.29993
-1.20089
-1.10559
-1.01424
-0.926342
-0.841733
-0.76097
-0.684074
-0.610406
-0.537305
-0.463199
-0.425092
-0.40601
-3.59562
-3.84248
-4.02087
-4.16635
-4.27679
-4.36177
-4.4255
-4.46934
-4.4998
-4.51956
-4.53208
-4.54078
-4.5463
-4.54986
-4.55238
-4.55428
-4.55547
-4.55667
-4.5557
-4.54622
-4.5214
-4.47209
-4.37858
-4.24272
-4.06556
-3.81884
-3.46084
-3.00909
-2.61271
-2.32497
-2.12059
-1.96411
-1.83305
-1.71468
-1.60368
-1.4972
-1.39431
-1.29491
-1.19838
-1.10506
-1.01453
-0.927753
-0.84364
-0.763335
-0.686771
-0.613767
-0.542268
-0.46796
-0.426391
-0.407092
-3.47919
-3.71388
-3.88085
-4.01699
-4.12141
-4.20167
-4.2608
-4.30208
-4.33035
-4.34874
-4.36047
-4.36857
-4.37372
-4.37702
-4.37933
-4.38124
-4.38288
-4.38374
-4.38237
-4.37376
-4.35061
-4.30534
-4.21942
-4.09193
-3.92533
-3.69395
-3.3589
-2.93402
-2.55549
-2.27841
-2.07989
-1.9292
-1.8032
-1.69051
-1.58492
-1.48335
-1.38495
-1.28907
-1.19515
-1.10346
-1.01439
-0.928522
-0.845469
-0.765352
-0.689136
-0.617008
-0.546753
-0.472826
-0.428046
-0.407799
-3.36459
-3.58817
-3.74376
-3.87176
-3.96981
-4.04545
-4.10108
-4.13963
-4.16494
-4.18288
-4.19394
-4.20159
-4.20603
-4.20854
-4.21064
-4.21233
-4.21386
-4.21483
-4.21333
-4.20565
-4.18523
-4.14259
-4.06448
-3.94527
-3.78793
-3.57183
-3.25872
-2.85971
-2.49867
-2.23151
-2.03917
-1.89323
-1.77251
-1.66536
-1.56494
-1.46857
-1.37463
-1.28195
-1.19078
-1.10142
-1.0139
-0.928731
-0.8466
-0.767274
-0.691427
-0.619444
-0.550389
-0.478052
-0.429603
-0.408493
-3.25072
-3.46419
-3.6101
-3.7295
-3.82168
-3.89266
-3.94506
-3.98074
-4.00426
-4.02114
-4.03145
-4.03865
-4.04318
-4.04529
-4.04703
-4.0485
-4.04979
-4.05056
-4.0496
-4.04242
-4.02384
-3.98449
-3.91273
-3.80168
-3.65414
-3.45148
-3.15929
-2.78538
-2.44213
-2.18421
-1.99796
-1.85704
-1.74136
-1.63911
-1.54409
-1.45281
-1.36292
-1.27391
-1.18564
-1.09818
-1.01249
-0.928707
-0.847428
-0.76908
-0.693602
-0.621899
-0.553959
-0.483073
-0.432044
-0.409312
-3.13806
-3.34197
-3.47895
-3.59079
-3.6775
-3.74378
-3.79225
-3.82525
-3.84805
-3.86311
-3.87314
-3.87955
-3.88381
-3.88647
-3.88819
-3.88946
-3.89048
-3.89101
-3.88967
-3.88367
-3.86607
-3.82985
-3.76463
-3.66121
-3.52294
-3.33346
-3.06083
-2.71084
-2.38518
-2.13687
-1.95664
-1.82053
-1.70923
-1.6121
-1.52189
-1.43519
-1.34976
-1.26453
-1.17932
-1.09419
-1.01054
-0.927937
-0.847748
-0.769952
-0.694924
-0.623943
-0.556947
-0.488245
-0.43291
-0.4125
-3.02574
-3.22161
-3.3499
-3.45452
-3.53603
-3.59842
-3.64236
-3.67383
-3.69513
-3.70942
-3.71852
-3.72492
-3.72894
-3.73141
-3.73297
-3.73404
-3.73481
-3.73504
-3.7336
-3.72822
-3.71244
-3.67841
-3.61899
-3.52348
-3.39403
-3.21666
-2.96297
-2.63651
-2.32762
-2.08856
-1.91455
-1.78271
-1.67646
-1.58381
-1.49864
-1.41676
-1.33535
-1.25397
-1.1716
-1.08936
-1.00731
-0.926516
-0.847273
-0.770453
-0.69627
-0.625547
-0.559326
-0.49303
-0.43447
-0.410072
-2.91451
-3.10186
-3.22276
-3.32047
-3.39771
-3.45551
-3.4961
-3.52548
-3.54562
-3.55901
-3.5676
-3.57364
-3.57741
-3.57972
-3.58112
-3.58201
-3.58255
-3.58248
-3.58084
-3.57585
-3.56176
-3.53072
-3.47641
-3.38824
-3.26775
-3.10116
-2.86535
-2.56149
-2.26921
-2.04023
-1.87151
-1.74425
-1.64214
-1.55411
-1.47379
-1.39626
-1.31923
-1.24175
-1.16273
-1.08296
-1.00308
-0.92397
-0.846343
-0.770528
-0.697182
-0.626646
-0.561288
-0.497294
-0.436416
-0.410198
-2.80383
-2.98371
-3.09778
-3.18923
-3.26149
-3.31492
-3.35327
-3.38004
-3.39903
-3.41168
-3.42052
-3.42582
-3.42896
-3.4311
-3.43237
-3.43311
-3.43344
-3.4331
-3.432
-3.42645
-3.41382
-3.38569
-3.33596
-3.25558
-3.14289
-2.98645
-2.7674
-2.48557
-2.21016
-1.99026
-1.82727
-1.70484
-1.60663
-1.52327
-1.44722
-1.37429
-1.30162
-1.22762
-1.15225
-1.07542
-0.997993
-0.920798
-0.844624
-0.770022
-0.697575
-0.627631
-0.562975
-0.500816
-0.438399
-0.41053
-2.69442
-2.8665
-2.97351
-3.0598
-3.12723
-3.17656
-3.21222
-3.23751
-3.25527
-3.26788
-3.27543
-3.28074
-3.28402
-3.286
-3.28714
-3.28776
-3.28793
-3.2874
-3.28532
-3.28061
-3.26919
-3.24386
-3.19758
-3.12373
-3.01913
-2.87312
-2.6698
-2.40883
-2.14903
-1.93878
-1.78199
-1.66356
-1.56983
-1.4907
-1.41877
-1.35031
-1.28159
-1.21177
-1.13957
-1.06591
-0.991217
-0.916367
-0.841775
-0.768524
-0.697016
-0.628292
-0.563631
-0.503588
-0.441075
-0.410684
-2.58565
-2.75031
-2.85129
-2.93188
-2.99483
-3.0404
-3.07365
-3.09798
-3.11478
-3.12586
-3.13356
-3.13847
-3.14087
-3.14261
-3.14364
-3.14417
-3.14425
-3.14396
-3.14211
-3.13744
-3.12626
-3.10355
-3.06124
-2.9939
-2.89659
-2.76035
-2.57177
-2.33033
-2.08651
-1.88589
-1.73449
-1.62054
-1.53127
-1.45582
-1.38859
-1.32378
-1.25936
-1.19364
-1.12521
-1.05492
-0.982989
-0.910261
-0.837607
-0.765788
-0.695723
-0.627857
-0.564012
-0.505526
-0.443219
-0.41097
-2.47782
-2.63524
-2.73043
-2.80565
-2.86426
-2.90707
-2.93814
-2.96028