/*--------------------------------*- C++ -*----------------------------------*\
| =========                 |                                                 |
| \\      /  F ield         | OpenFOAM: The Open Source CFD Toolbox           |
|  \\    /   O peration     | Version:  v1912                                 |
|   \\  /    A nd           | Website:  www.openfoam.com                      |
|    \\/     M anipulation  |                                                 |
\*---------------------------------------------------------------------------*/
FoamFile
{
    version     2.0;
    format      ascii;
    class       volScalarField;
    location    "31536000";
    object      psi;
}
// * * * * * * * * * * * * * * * * * * * * * * * * * * * * * * * * * * * * * //

dimensions      [0 1 0 0 0 0 0];


internalField   nonuniform List<scalar> 
4250
(
-149.587
-157.662
-157.886
-157.957
-157.965
-157.974
-157.977
-157.979
-157.98
-157.979
-157.98
-157.981
-157.981
-157.981
-157.98
-157.981
-157.981
-157.981
-157.981
-157.981
-157.981
-157.981
-157.981
-157.981
-157.981
-157.981
-157.981
-157.981
-157.981
-157.981
-157.981
-157.981
-157.981
-157.981
-157.981
-157.982
-157.982
-157.982
-157.982
-157.983
-157.983
-157.985
-157.985
-157.985
-157.985
-157.986
-157.986
-157.986
-157.984
-157.983
-132.615
-155.589
-157.439
-157.849
-157.879
-157.929
-157.957
-157.966
-157.968
-157.968
-157.97
-157.971
-157.97
-157.97
-157.97
-157.97
-157.971
-157.971
-157.971
-157.971
-157.971
-157.971
-157.971
-157.971
-157.971
-157.971
-157.971
-157.971
-157.971
-157.971
-157.971
-157.971
-157.972
-157.971
-157.972
-157.973
-157.973
-157.974
-157.974
-157.977
-157.978
-157.982
-157.986
-157.992
-157.994
-157.997
-157.999
-158
-157.998
-157.997
-103.123
-146.171
-155.053
-157.224
-157.339
-157.597
-157.778
-157.828
-157.836
-157.838
-157.842
-157.844
-157.844
-157.844
-157.844
-157.845
-157.845
-157.845
-157.845
-157.845
-157.845
-157.845
-157.845
-157.845
-157.846
-157.846
-157.846
-157.846
-157.846
-157.846
-157.847
-157.847
-157.848
-157.848
-157.849
-157.852
-157.853
-157.855
-157.859
-157.865
-157.873
-157.887
-157.912
-157.953
-157.974
-157.98
-157.996
-158.004
-158.006
-158.006
-60.4194
-121.701
-145.525
-154.404
-154.846
-155.987
-156.904
-157.147
-157.181
-157.19
-157.198
-157.204
-157.206
-157.207
-157.208
-157.209
-157.21
-157.21
-157.21
-157.21
-157.211
-157.211
-157.211
-157.211
-157.211
-157.211
-157.212
-157.212
-157.212
-157.213
-157.214
-157.215
-157.217
-157.219
-157.223
-157.229
-157.234
-157.243
-157.255
-157.276
-157.305
-157.358
-157.477
-157.71
-157.832
-157.852
-157.932
-157.984
-158.007
-158.012
-46.6841
-99.5849
-122.214
-143.767
-145.886
-150.072
-153.421
-154.289
-154.409
-154.445
-154.472
-154.489
-154.499
-154.505
-154.509
-154.512
-154.514
-154.515
-154.516
-154.516
-154.517
-154.517
-154.517
-154.518
-154.518
-154.519
-154.519
-154.52
-154.522
-154.524
-154.527
-154.531
-154.538
-154.546
-154.559
-154.578
-154.602
-154.636
-154.684
-154.759
-154.872
-155.071
-155.552
-156.613
-157.164
-157.231
-157.582
-157.85
-157.982
-158.011
-38.9317
-72.7826
-101.543
-116.836
-125.676
-135.8
-142.386
-144.199
-144.602
-144.798
-144.93
-145.013
-145.065
-145.099
-145.121
-145.135
-145.144
-145.149
-145.153
-145.156
-145.158
-145.159
-145.16
-145.162
-145.163
-145.165
-145.169
-145.173
-145.18
-145.191
-145.206
-145.228
-145.26
-145.305
-145.368
-145.457
-145.577
-145.745
-145.979
-146.313
-146.802
-147.571
-149.159
-152.62
-154.427
-154.707
-156.102
-157.226
-157.84
-157.986
-33.8298
-56.814
-78.5287
-92.8973
-107.204
-115.105
-118.313
-120.381
-121.728
-122.598
-123.157
-123.507
-123.724
-123.86
-123.95
-124.01
-124.044
-124.065
-124.079
-124.091
-124.1
-124.106
-124.112
-124.118
-124.123
-124.131
-124.143
-124.16
-124.188
-124.233
-124.292
-124.379
-124.512
-124.689
-124.943
-125.283
-125.751
-126.384
-127.23
-128.374
-129.936
-132.1
-135.494
-141.627
-145.119
-146.551
-151.228
-154.755
-157.192
-157.841
-30.0675
-46.8932
-62.6454
-74.82
-85.2688
-91.6853
-96.4653
-99.8523
-102.213
-103.643
-104.537
-105.127
-105.459
-105.646
-105.795
-105.91
-105.943
-105.963
-105.98
-106.012
-106.035
-106.052
-106.067
-106.078
-106.083
-106.09
-106.099
-106.113
-106.149
-106.237
-106.307
-106.429
-106.656
-106.888
-107.281
-107.747
-108.418
-109.31
-110.412
-111.819
-113.591
-115.702
-118.038
-120.834
-124.46
-129.624
-139.823
-147.052
-154.664
-157.207
-27.0497
-40.1222
-52.0509
-61.7639
-69.0657
-74.5988
-79.0706
-82.1794
-84.2465
-85.4803
-86.29
-86.8015
-87.0895
-87.24
-87.3719
-87.3971
-87.4607
-87.5066
-87.537
-87.5587
-87.5737
-87.5849
-87.5946
-87.6042
-87.6156
-87.6279
-87.6324
-87.6392
-87.6498
-87.6678
-87.7829
-87.9003
-88.0414
-88.2291
-88.5488
-88.9444
-89.4643
-90.2025
-91.0804
-92.2099
-93.6878
-95.6093
-98.1276
-101.504
-106.705
-113.808
-121.76
-131.64
-146.854
-154.879
-24.5833
-35.1548
-44.5479
-52.2144
-57.6345
-62.2252
-65.8827
-68.3036
-69.9128
-70.8513
-71.4191
-71.7955
-71.9977
-72.1725
-72.2978
-72.321
-72.3308
-72.3372
-72.3517
-72.3658
-72.3754
-72.3825
-72.3884
-72.3944
-72.4017
-72.4117
-72.426
-72.4476
-72.4803
-72.5295
-72.6058
-72.6489
-72.7454
-72.9571
-73.1543
-73.4511
-73.8955
-74.399
-75.1442
-76.0746
-77.3041
-78.949
-81.2462
-84.5358
-89.3253
-95.6084
-103.791
-116.624
-131.415
-148.274
-22.5058
-31.2748
-38.9591
-45.109
-49.4226
-53.2454
-56.0608
-57.9049
-59.0883
-59.8193
-60.3072
-60.5693
-60.7115
-60.8338
-60.9263
-60.9848
-61.0221
-61.046
-61.0616
-61.0633
-61.0645
-61.0653
-61.0659
-61.0665
-61.0671
-61.0679
-61.0691
-61.0708
-61.0734
-61.0795
-61.1328
-61.211
-61.3253
-61.4156
-61.6069
-61.8108
-62.1256
-62.5848
-63.1527
-63.911
-64.9292
-66.3341
-68.2879
-70.956
-74.784
-79.6983
-87.0513
-99.3696
-116.805
-136.032
-20.7121
-28.1758
-34.6504
-39.6171
-43.2279
-46.3104
-48.5575
-50.0212
-50.9522
-51.5003
-51.8742
-52.1657
-52.2548
-52.3699
-52.4433
-52.49
-52.5199
-52.5391
-52.5515
-52.5597
-52.5653
-52.5682
-52.5686
-52.569
-52.5693
-52.5698
-52.5704
-52.5713
-52.5726
-52.5746
-52.5968
-52.6575
-52.7461
-52.873
-52.9575
-53.2038
-53.4447
-53.8019
-54.3118
-54.9268
-55.8062
-56.9284
-58.4477
-60.6085
-63.4837
-67.2891
-73.3821
-83.4386
-100.52
-122.894
-19.1727
-25.6119
-31.1649
-35.2931
-38.3675
-40.8892
-42.7089
-43.8912
-44.6581
-45.177
-45.4828
-45.6463
-45.7972
-45.8933
-45.9545
-45.9596
-45.963
-45.9654
-45.967
-45.9721
-45.9767
-45.9801
-45.9828
-45.9854
-45.9884
-45.9926
-45.9987
-46.008
-46.0223
-46.0441
-46.0769
-46.1259
-46.1975
-46.3006
-46.3647
-46.5656
-46.7578
-47.0447
-47.4555
-48.0285
-48.7311
-49.6299
-50.9035
-52.5813
-54.7852
-57.824
-62.7498
-70.5563
-85.1245
-108.315
-17.8397
-23.4358
-28.2428
-31.7333
-34.4245
-36.5331
-38.0505
-39.0334
-39.6748
-40.1137
-40.3728
-40.5804
-40.6424
-40.7228
-40.7752
-40.8086
-40.8301
-40.8438
-40.8528
-40.8586
-40.8626
-40.8655
-40.8677
-40.8699
-40.8724
-40.8758
-40.8809
-40.8885
-40.9003
-40.9183
-40.9455
-40.9859
-40.9941
-41.0601
-41.1803
-41.3302
-41.5028
-41.7367
-42.0716
-42.5373
-43.1112
-43.8765
-44.9384
-46.2095
-47.9767
-50.4914
-54.4418
-60.7068
-72.3422
-93.3581
-16.6526
-21.5885
-25.8121
-28.8069
-31.1414
-32.9244
-34.2109
-35.0809
-35.6329
-36.0123
-36.2678
-36.4164
-36.5291
-36.6006
-36.6227
-36.6265
-36.632
-36.6439
-36.6517
-36.6568
-36.6602
-36.6627
-36.6646
-36.6664
-36.6685
-36.6714
-36.6755
-36.6819
-36.6916
-36.7065
-36.7291
-36.7628
-36.8123
-36.8836
-36.9544
-37.0609
-37.2506
-37.4422
-37.717
-38.0977
-38.6141
-39.2374
-40.081
-41.1447
-42.5965
-44.6535
-47.9328
-52.9818
-62.3304
-80.107
-15.6344
-19.9991
-23.714
-26.3507
-28.371
-29.9127
-31.0426
-31.821
-32.3054
-32.6372
-32.8321
-32.9901
-33.0889
-33.1514
-33.1678
-33.1713
-33.1777
-33.1881
-33.1949
-33.1993
-33.2023
-33.2045
-33.2061
-33.2077
-33.2094
-33.2118
-33.2152
-33.2205
-33.2286
-33.241
-33.2599
-33.2881
-33.3296
-33.3894
-33.4739
-33.535
-33.6943
-33.8516
-34.1297
-34.4484
-34.8144
-35.3784
-36.0626
-36.9848
-38.2049
-39.9421
-42.6552
-46.8074
-54.4508
-69.2233
-14.713
-18.5884
-21.9105
-24.2373
-26.025
-27.3506
-28.3369
-29.0244
-29.4974
-29.7892
-29.9597
-30.0987
-30.1856
-30.2406
-30.2538
-30.2572
-30.2625
-30.2717
-30.2776
-30.2816
-30.2842
-30.286
-30.2875
-30.2888
-30.2903
-30.2922
-30.2951
-30.2994
-30.3062
-30.3166
-30.3323
-30.356
-30.3908
-30.4412
-30.5125
-30.561
-30.6953
-30.8643
-31.0632
-31.3236
-31.6759
-32.1453
-32.7125
-33.4858
-34.5105
-36.0291
-38.2879
-41.8216
-48.1622
-60.4187
-13.8928
-17.3512
-20.3421
-22.4157
-24.0161
-25.1762
-26.0497
-26.6607
-27.0798
-27.337
-27.5258
-27.6093
-27.6861
-27.7347
-27.7656
-27.7853
-27.798
-27.8061
-27.8114
-27.8148
-27.8171
-27.8187
-27.82
-27.8211
-27.8224
-27.824
-27.8264
-27.83
-27.8356
-27.8444
-27.8477
-27.8478
-27.8617
-27.9043
-27.9647
-28.0485
-28.1338
-28.2702
-28.4316
-28.6917
-28.9887
-29.3741
-29.8654
-30.5249
-31.4515
-32.7379
-34.6089
-37.6274
-43.0115
-53.3241
-13.1752
-16.2578
-18.9366
-20.8322
-22.2309
-23.2687
-24.0862
-24.6315
-25.0035
-25.232
-25.3638
-25.4729
-25.5412
-25.5844
-25.6119
-25.617
-25.619
-25.6204
-25.6213
-25.622
-25.6224
-25.6226
-25.6228
-25.6229
-25.623
-25.623
-25.6245
-25.6276
-25.6323
-25.6396
-25.6508
-25.6676
-25.6926
-25.7288
-25.7803
-25.852
-25.9083
-26.0397
-26.1771
-26.3997
-26.6535
-26.9945
-27.4171
-28.0222
-28.8236
-29.9542
-31.5448
-34.1645
-38.7272
-47.4613
-12.5074
-15.2844
-17.6942
-19.4083
-20.6625
-21.609
-22.343
-22.8302
-23.1624
-23.3646
-23.5184
-23.5788
-23.6399
-23.6785
-23.7031
-23.7189
-23.7289
-23.7354
-23.7396
-23.7424
-23.7442
-23.7454
-23.7464
-23.7472
-23.7481
-23.7493
-23.751
-23.7535
-23.7575
-23.7637
-23.7732
-23.7876
-23.8089
-23.8323
-23.8466
-23.9084
-23.993
-24.0972
-24.2198
-24.3796
-24.6382
-24.9352
-25.2942
-25.8338
-26.5304
-27.5003
-28.9084
-31.1549
-35.0877
-42.5914
-11.8967
-14.412
-16.5883
-18.1716
-19.2952
-20.1496
-20.8074
-21.247
-21.5444
-21.7252
-21.8634
-21.923
-21.9722
-22.0071
-22.0293
-22.0435
-22.0526
-22.0585
-22.0622
-22.0647
-22.0664
-22.0675
-22.0683
-22.0691
-22.0699
-22.0708
-22.0722
-22.0744
-22.0778
-22.0831
-22.0913
-22.1036
-22.122
-22.149
-22.1875
-22.2065
-22.2804
-22.38
-22.4775
-22.6521
-22.8445
-23.1057
-23.4579
-23.9341
-24.5425
-25.3817
-26.6057
-28.5935
-32.0172
-38.5036
-11.3501
-13.625
-15.6017
-17.0386
-18.0513
-18.8254
-19.4209
-19.8429
-20.1106
-20.2734
-20.3986
-20.4469
-20.497
-20.5287
-20.549
-20.5619
-20.5702
-20.5755
-20.579
-20.5812
-20.5827
-20.5838
-20.5845
-20.5852
-20.5859
-20.5867
-20.5879
-20.5898
-20.5927
-20.5973
-20.6043
-20.615
-20.6311
-20.6546
-20.6883
-20.7036
-20.7686
-20.8567
-20.942
-21.0967
-21.2667
-21.4983
-21.8107
-22.2319
-22.7912
-23.5331
-24.6093
-26.3432
-29.3622
-35.0348
-10.8271
-12.8998
-14.7219
-16.0187
-16.9458
-17.6681
-18.2065
-18.5598
-18.8038
-18.9785
-19.065
-19.1366
-19.1826
-19.2117
-19.2303
-19.2422
-19.2498
-19.2547
-19.2579
-19.2599
-19.2613
-19.2622
-19.2629
-19.2635
-19.2641
-19.2648
-19.2659
-19.2675
-19.27
-19.274
-19.2802
-19.2896
-19.3036
-19.3228
-19.3245
-19.3664
-19.4241
-19.5025
-19.5773
-19.7159
-19.8671
-20.0833
-20.3659
-20.7252
-21.227
-21.9038
-22.86
-24.3843
-27.03
-31.9919
-10.3539
-12.2449
-13.9163
-15.0954
-15.9581
-16.6
-17.0872
-17.4335
-17.6544
-17.8113
-17.8942
-17.9615
-18.004
-18.0309
-18.048
-18.059
-18.066
-18.0706
-18.0735
-18.075
-18.0754
-18.0756
-18.0758
-18.0759
-18.076
-18.076
-18.076
-18.0761
-18.0761
-18.0762
-18.0763
-18.0765
-18.0866
-18.1049
-18.1314
-18.1687
-18.2203
-18.2905
-18.3566
-18.4811
-18.616
-18.8037
-19.0725
-19.381
-19.8259
-20.4286
-21.2799
-22.6305
-24.9997
-29.4064
-9.91073
-11.6566
-13.1775
-14.2722
-15.0472
-15.6556
-16.0986
-16.4151
-16.6179
-16.7421
-16.8392
-16.9015
-16.9256
-16.9404
-16.9563
-16.9665
-16.973
-16.9772
-16.98
-16.9817
-16.9829
-16.9837
-16.9843
-16.9848
-16.9852
-16.9858
-16.9866
-16.9878
-16.9898
-16.9929
-16.9976
-17.0049
-17.016
-17.0323
-17.056
-17.0894
-17.1357
-17.1728
-17.2574
-17.3694
-17.4901
-17.655
-17.8937
-18.1844
-18.5702
-19.1097
-19.9033
-21.1048
-23.2157
-27.128
-9.49491
-11.1039
-12.5005
-13.5084
-14.217
-14.7728
-15.1786
-15.4669
-15.6538
-15.7922
-15.8756
-15.9165
-15.9532
-15.9764
-15.9912
-16.0007
-16.0068
-16.0107
-16.0133
-16.0149
-16.016
-16.0168
-16.0173
-16.0177
-16.0182
-16.0187
-16.0194
-16.0205
-16.0222
-16.0249
-16.0291
-16.0356
-16.0454
-16.06
-16.0811
-16.1074
-16.1286
-16.1853
-16.2614
-16.338
-16.4704
-16.618
-16.8208
-17.0965
-17.4382
-17.9243
-18.639
-19.7157
-21.6019
-25.113
-9.10451
-10.5905
-11.8772
-12.8039
-13.4763
-13.9857
-14.356
-14.6242
-14.7975
-14.9242
-14.9879
-15.0419
-15.0761
-15.0977
-15.1116
-15.1205
-15.1262
-15.1298
-15.1322
-15.1337
-15.1348
-15.1355
-15.136
-15.1363
-15.1367
-15.1372
-15.1378
-15.1388
-15.1403
-15.1427
-15.1464
-15.1522
-15.1606
-15.1616
-15.1703
-15.1972
-15.2345
-15.2855
-15.3542
-15.4224
-15.5417
-15.674
-15.8522
-16.1067
-16.4226
-16.8618
-17.4983
-18.469
-20.1768
-23.3367
-8.74238
-10.113
-11.3044
-12.1568
-12.7758
-13.243
-13.6034
-13.845
-14.0131
-14.1123
-14.1905
-14.2408
-14.2727
-14.293
-14.2972
-14.2998
-14.3015
-14.3027
-14.3042
-14.3056
-14.3066
-14.3072
-14.3077
-14.308
-14.3084
-14.3088
-14.3093
-14.3102
-14.3115
-14.3136
-14.3169
-14.322
-14.3297
-14.3413
-14.3582
-14.3822
-14.4158
-14.4617
-14.5022
-14.5842
-14.692
-14.8107
-14.971
-15.207
-15.5014
-15.9025
-16.4636
-17.3525
-18.9025
-21.7588
-8.40587
-9.68141
-10.781
-11.5728
-12.1466
-12.577
-12.892
-13.1227
-13.2865
-13.384
-13.4569
-13.5039
-13.514
-13.5329
-13.545
-13.5527
-13.5577
-13.5609
-13.5629
-13.5643
-13.5652
-13.5658
-13.5662
-13.5665
-13.5668
-13.5672
-13.5677
-13.5684
-13.5696
-13.5714
-13.5743
-13.5788
-13.5857
-13.596
-13.611
-13.6326
-13.6627
-13.704
-13.7396
-13.8137
-13.9111
-14.0179
-14.1628
-14.3797
-14.6461
-15.0118
-15.5309
-16.3464
-17.7367
-20.3162
-8.09393
-9.26488
-10.2824
-11.0208
-11.5484
-11.9609
-12.2532
-12.4679
-12.6072
-12.7113
-12.7793
-12.8045
-12.8323
-12.85
-12.8613
-12.8686
-12.8732
-12.8762
-12.8782
-12.8794
-12.8802
-12.8808
-12.8812
-12.8815
-12.8818
-12.8821
-12.8825
-12.8831
-12.8841
-12.8858
-12.8883
-12.8923
-12.8983
-12.9075
-12.9209
-12.9402
-12.9672
-12.9961
-13.0357
-13.1027
-13.191
-13.2874
-13.4225
-13.6173
-13.861
-14.1949
-14.6795
-15.4133
-16.6796
-19.0486
-7.79042
-8.88744
-9.83089
-10.514
-11.005
-11.3733
-11.6611
-11.861
-11.9906
-12.0876
-12.151
-12.1744
-12.2004
-12.2169
-12.2275
-12.2343
-12.2386
-12.2414
-12.2432
-12.2444
-12.2452
-12.2457
-12.2461
-12.2464
-12.2466
-12.2469
-12.2472
-12.2478
-12.2487
-12.2501
-12.2523
-12.2558
-12.2611
-12.2693
-12.2812
-12.2985
-12.3227
-12.3514
-12.3838
-12.4445
-12.5248
-12.6122
-12.7505
-12.9141
-13.1376
-13.443
-13.8859
-14.5586
-15.7164
-17.8747
-7.51515
-8.53335
-9.40843
-10.0447
-10.5002
-10.8426
-11.1107
-11.2966
-11.4171
-11.5075
-11.5667
-11.5897
-11.6126
-11.6281
-11.638
-11.6444
-11.6484
-11.6511
-11.6528
-11.6539
-11.6546
-11.6551
-11.6554
-11.6557
-11.6559
-11.6561
-11.6565
-11.6569
-11.6577
-11.6589
-11.6609
-11.6639
-11.6687
-11.6759
-11.6866
-11.702
-11.7239
-11.7541
-11.7784
-11.8337
-11.907
-11.9864
-12.1135
-12.2636
-12.4687
-12.7669
-13.1546
-13.7729
-14.835
-16.8085
-7.25517
-8.20052
-9.01242
-9.60527
-10.0285
-10.3475
-10.5972
-10.7701
-10.8822
-10.9665
-11.0217
-11.0575
-11.0747
-11.08
-11.0884
-11.0944
-11.0982
-11.1007
-11.1023
-11.1033
-11.104
-11.1044
-11.1048
-11.105
-11.1052
-11.1054
-11.1057
-11.1061
-11.1068
-11.1078
-11.1095
-11.1122
-11.1165
-11.1229
-11.1324
-11.1463
-11.166
-11.1935
-11.2309
-11.2654
-11.3325
-11.4213
-11.522
-11.6708
-11.8652
-12.1222
-12.4966
-13.067
-14.0254
-15.8595
-7.00847
-7.88698
-8.64052
-9.19279
-9.58698
-9.88484
-10.1169
-10.2777
-10.3965
-10.4607
-10.5124
-10.5459
-10.5674
-10.5811
-10.5898
-10.5955
-10.5991
-10.6014
-10.6029
-10.6039
-10.6045
-10.605
-10.6053
-10.6055
-10.6057
-10.6059
-10.6061
-10.6065
-10.607
-10.608
-10.6095
-10.6119
-10.6156
-10.6176
-10.6191
-10.6275
-10.6453
-10.6703
-10.7045
-10.7507
-10.7972
-10.8789
-10.9858
-11.1139
-11.2871
-11.5397
-11.869
-12.3952
-13.2984
-14.9672
-6.78238
-7.59085
-8.29061
-8.80486
-9.17273
-9.46348
-9.67085
-9.82975
-9.92702
-10.0009
-10.0354
-10.067
-10.0872
-10.1001
-10.1084
-10.1137
-10.1171
-10.1193
-10.1207
-10.1217
-10.1223
-10.1227
-10.1229
-10.1231
-10.1233
-10.1235
-10.1237
-10.124
-10.1245
-10.1253
-10.1267
-10.1288
-10.1322
-10.1373
-10.1451
-10.1564
-10.1727
-10.1954
-10.2124
-10.2548
-10.3116
-10.382
-10.472
-10.5962
-10.7629
-10.9808
-11.3017
-11.7887
-12.6072
-14.1472
-6.55655
-7.32032
-7.96068
-8.43939
-8.79542
-9.05455
-9.25592
-9.39544
-9.49455
-9.55573
-9.60148
-9.63127
-9.65038
-9.66259
-9.67042
-9.67545
-9.6777
-9.67866
-9.67929
-9.67971
-9.67998
-9.68016
-9.68028
-9.68036
-9.68042
-9.68047
-9.68051
-9.68056
-9.68064
-9.68076
-9.68095
-9.68128
-9.6818
-9.68354
-9.69054
-9.70083
-9.71562
-9.7364
-9.7651
-9.80411
-9.84403
-9.91215
-10.0041
-10.1113
-10.2696
-10.4738
-10.7722
-11.208
-11.9661
-13.4106
-6.34789
-7.05339
-7.65188
-8.10566
-8.42782
-8.68118
-8.8566
-8.99936
-9.08464
-9.15007
-9.1899
-9.20861
-9.22667
-9.23823
-9.24564
-9.25041
-9.25348
-9.25546
-9.25674
-9.25757
-9.25811
-9.25847
-9.25872
-9.25889
-9.25904
-9.25918
-9.25935
-9.2596
-9.26
-9.26064
-9.26169
-9.26339
-9.26608
-9.27026
-9.2766
-9.28595
-9.29942
-9.31843
-9.34475
-9.36752
-9.41564
-9.47969
-9.55107
-9.66299
-9.79819
-9.99897
-10.2655
-10.6815
-11.3864
-12.7103
-6.14642
-6.8083
-7.36344
-7.77918
-8.09174
-8.31672
-8.49172
-8.61383
-8.70597
-8.75892
-8.7964
-8.82301
-8.84013
-8.85108
-8.85811
-8.86264
-8.86555
-8.86743
-8.86865
-8.86944
-8.86995
-8.87029
-8.87053
-8.87069
-8.87082
-8.87095
-8.87111
-8.87133
-8.87168
-8.87225
-8.87318
-8.8747
-8.8771
-8.88087
-8.88659
-8.89507
-8.90733
-8.92193
-8.93635
-8.96919
-9.01341
-9.07236
-9.13772
-9.2411
-9.36614
-9.55323
-9.79861
-10.1889
-10.839
-12.0782
-5.94655
-6.56502
-7.09203
-7.48029
-7.76257
-7.98297
-8.14672
-8.26143
-8.34838
-8.39515
-8.43372
-8.4589
-8.4751
-8.48549
-8.49216
-8.49645
-8.49921
-8.50099
-8.50215
-8.5029
-8.50339
-8.50371
-8.50393
-8.50408
-8.50421
-8.50432
-8.50446
-8.50465
-8.50496
-8.50546
-8.50629
-8.50763
-8.50978
-8.51314
-8.51829
-8.52596
-8.53347
-8.54104
-8.563
-8.59307
-8.63363
-8.68782
-8.74766
-8.8433
-8.95928
-9.13393
-9.36313
-9.72687
-10.3249
-11.4735
-5.76351
-6.34082
-6.82405
-7.19571
-7.46053
-7.66646
-7.82003
-7.92797
-8.01003
-8.05405
-8.09049
-8.11429
-8.12961
-8.13944
-8.14575
-8.14982
-8.15244
-8.15413
-8.15522
-8.15593
-8.15639
-8.1567
-8.15691
-8.15705
-8.15717
-8.15727
-8.15739
-8.15756
-8.15783
-8.15826
-8.15898
-8.16016
-8.16206
-8.16506
-8.16967
-8.17657
-8.18337
-8.18964
-8.20963
-8.23709
-8.27425
-8.32405
-8.37889
-8.46759
-8.57546
-8.7387
-8.96421
-9.29255
-9.85134
-10.9253
-5.58186
-6.12579
-6.57737
-6.91707
-7.17317
-7.36589
-7.51021
-7.61181
-7.68919
-7.73055
-7.7649
-7.78735
-7.80182
-7.81111
-7.81708
-7.82092
-7.8234
-7.825
-7.82603
-7.82671
-7.82714
-7.82743
-7.82763
-7.82776
-7.82787
-7.82796
-7.82806
-7.82821
-7.82844
-7.82881
-7.82944
-7.83047
-7.83213
-7.83479
-7.83889
-7.84507
-7.85411
-7.86707
-7.87443
-7.89947
-7.93351
-7.97933
-8.03564
-8.11218
-8.22405
-8.36536
-8.57582
-8.88337
-9.40645
-10.4126
-5.40678
-5.9194
-6.34147
-6.66285
-6.89933
-7.08007
-7.21585
-7.31141
-7.38424
-7.43315
-7.45532
-7.47647
-7.49011
-7.49887
-7.50451
-7.50813
-7.51047
-7.51199
-7.51296
-7.5136
-7.51401
-7.51428
-7.51447
-7.51459
-7.51469
-7.51477
-7.51486
-7.51498
-7.51518
-7.5155
-7.51603
-7.51692
-7.51838
-7.52071
-7.52435
-7.52986
-7.53798
-7.54969
-7.56619
-7.58907
-7.6099
-7.65215
-7.70911
-7.77669
-7.8801
-8.02142
-8.20848
-8.49703
-8.98754
-9.93191
-5.24523
-5.72892
-6.11559
-6.42276
-6.63803
-6.8079
-6.93565
-7.0349
-7.09373
-7.13966
-7.17008
-7.19001
-7.20288
-7.20717
-7.20988
-7.21167
-7.21284
-7.2137
-7.21462
-7.21522
-7.21561
-7.21587
-7.21604
-7.21616
-7.21625
-7.21632
-7.2164
-7.2165
-7.21666
-7.21693
-7.21739
-7.21815
-7.21942
-7.22146
-7.22468
-7.2296
-7.23689
-7.24746
-7.26246
-7.28338
-7.31211
-7.35116
-7.39417
-7.4661
-7.55901
-7.68727
-7.87123
-8.14268
-8.59221
-9.48012
-5.08257
-5.53819
-5.90703
-6.18715
-6.39702
-6.55714
-6.67736
-6.76143
-6.82565
-6.85946
-6.88804
-6.90678
-6.91891
-6.92671
-6.93173
-6.93497
-6.93706
-6.93841
-6.93928
-6.93985
-6.94022
-6.94046
-6.94062
-6.94073
-6.94081
-6.94088
-6.94094
-6.94103
-6.94116
-6.94139
-6.94178
-6.94244
-6.94354
-6.94534
-6.94819
-6.95258
-6.95915
-6.96874
-6.98243
-6.995
-7.01862
-7.05491
-7.10433
-7.16662
-7.25355
-7.37831
-7.54045
-7.7956
-8.22966
-9.05454
-4.93218
-5.35757
-5.69894
-5.96116
-6.15783
-6.30865
-6.42136
-6.50867
-6.56
-6.60047
-6.62736
-6.64502
-6.65647
-6.66385
-6.6686
-6.67151
-6.67261
-6.67333
-6.67381
-6.67412
-6.67432
-6.67446
-6.67455
-6.67461
-6.67465
-6.67468
-6.6747
-6.67473
-6.67477
-6.67484
-6.67494
-6.67513
-6.67543
-6.67595
-6.67679
-6.67856
-6.68449
-6.69321
-6.70573
-6.7234
-6.74796
-6.78174
-6.8238
-6.88151
-6.96721
-7.07416
-7.23586
-7.47615
-7.87481
-8.65279
-4.78631
-5.18485
-5.50638
-5.7518
-5.93668
-6.07885
-6.1844
-6.25768
-6.3141
-6.35217
-6.37621
-6.38552
-6.39633
-6.4033
-6.4078
-6.4107
-6.41258
-6.41379
-6.41457
-6.41508
-6.41541
-6.41563
-6.41577
-6.41587
-6.41594
-6.41599
-6.41604
-6.41611
-6.41621
-6.41637
-6.41666
-6.41716
-6.41801
-6.41942
-6.4217
-6.42525
-6.43064
-6.4386
-6.45012
-6.46645
-6.48925
-6.51947
-6.55491
-6.61362
-6.69359
-6.79336
-6.94549
-7.1718
-7.54817
-8.27278
-4.64418
-5.02061
-5.31366
-5.55015
-5.71792
-5.85304
-5.95661
-6.02499
-6.07801
-6.11282
-6.1295
-6.14524
-6.15548
-6.16209
-6.16636
-6.16911
-6.17089
-6.17204
-6.17279
-6.17327
-6.17359
-6.17379
-6.17393
-6.17402
-6.17409
-6.17414
-6.17418
-6.17424
-6.17433
-6.17448
-6.17473
-6.17517
-6.17593
-6.1772
-6.17925
-6.18248
-6.1874
-6.1947
-6.20531
-6.22043
-6.2416
-6.26239
-6.30247
-6.35715
-6.43166
-6.52486
-6.66819
-6.88136
-7.23015
-7.92349
-4.50508
-4.86133
-5.13474
-5.34848
-5.51233
-5.63771
-5.73729
-5.80119
-5.85111
-5.88043
-5.89963
-5.91455
-5.92426
-5.93054
-5.93459
-5.93721
-5.9389
-5.93999
-5.9407
-5.94116
-5.94146
-5.94166
-5.94179
-5.94188
-5.94194
-5.94199
-5.94203
-5.94208
-5.94216
-5.94229
-5.94252
-5.94292
-5.9436
-5.94474
-5.94661
-5.94954
-5.95404
-5.96075
-5.97053
-5.9845
-6.00413
-6.02315
-6.06036
-6.11114
-6.18052
-6.26774
-6.40293
-6.60378
-6.93073
-7.58105
-4.36839
-4.7064
-4.96162
-5.16098
-5.31546
-5.43278
-5.52589
-5.58576
-5.63288
-5.66491
-5.6787
-5.69283
-5.70204
-5.708
-5.71185
-5.71433
-5.71594
-5.71699
-5.71766
-5.7181
-5.71838
-5.71857
-5.71869
-5.71878
-5.71884
-5.71888
-5.71893
-5.71897
-5.71905
-5.71917
-5.71937
-5.71973
-5.72034
-5.72138
-5.72307
-5.72574
-5.72985
-5.73599
-5.74499
-5.75786
-5.77598
-5.80109
-5.82769
-5.87473
-5.93936
-6.02741
-6.14876
-6.33808
-6.64743
-7.26529
-4.23823
-4.55524
-4.7937
-4.97971
-5.12525
-5.23528
-5.32194
-5.37821
-5.42277
-5.45312
-5.47342
-5.4824
-5.48818
-5.49383
-5.49748
-5.49985
-5.50138
-5.50237
-5.50301
-5.50342
-5.50369
-5.50387
-5.50399
-5.50407
-5.50413
-5.50417
-5.50421
-5.50426
-5.50432
-5.50443
-5.50461
-5.50494
-5.50549
-5.50642
-5.50794
-5.51036
-5.51409
-5.51969
-5.5279
-5.53971
-5.55634
-5.57945
-5.61121
-5.64721
-5.70753
-5.79223
-5.91274
-6.08338
-6.3763
-6.96234
-4.10605
-4.40735
-4.63042
-4.8042
-4.94329
-5.04999
-5.12502
-5.185
-5.22023
-5.24894
-5.26815
-5.28083
-5.28909
-5.29445
-5.29791
-5.30016
-5.30161
-5.30255
-5.30316
-5.30355
-5.30381
-5.30398
-5.30409
-5.30417
-5.30422
-5.30426
-5.3043
-5.30434
-5.3044
-5.30449
-5.30466
-5.30494
-5.30543
-5.30626
-5.30762
-5.3098
-5.3126
-5.31503
-5.31879
-5.32928
-5.34446
-5.36562
-5.39485
-5.43526
-5.48867
-5.56424
-5.67781
-5.8467
-6.12222
-6.66729
-3.97965
-4.2624
-4.47134
-4.64024
-4.76886
-4.86425
-4.93474
-4.9915
-5.03142
-5.05176
-5.06987
-5.08182
-5.08962
-5.09468
-5.09795
-5.10007
-5.10144
-5.10232
-5.1029
-5.10327
-5.10352
-5.10367
-5.10378
-5.10385
-5.1039
-5.10394
-5.10397
-5.10401
-5.10406
-5.10414
-5.10428
-5.10453
-5.10495
-5.10567
-5.10687
-5.10879
-5.11179
-5.11632
-5.12303
-5.13275
-5.14656
-5.16593
-5.1859
-5.22346
-5.27644
-5.35183
-5.45884
-5.61119
-5.87482
-6.39229
-3.84933
-4.12017
-4.31613
-4.47471
-4.59512
-4.68423
-4.75702
-4.80431
-4.84195
-4.86743
-4.88445
-4.89568
-4.90302
-4.90778
-4.91086
-4.91227
-4.91308
-4.91361
-4.91396
-4.91419
-4.91434
-4.91443
-4.9145
-4.91454
-4.91457
-4.91459
-4.91461
-4.91463
-4.91466
-4.9147
-4.91477
-4.91489
-4.91508
-4.9154
-4.91591
-4.91675
-4.91808
-4.92075
-4.92675
-4.9355
-4.94803
-4.96573
-4.99059
-5.02563
-5.07548
-5.13969
-5.24023
-5.39153
-5.63454
-6.12869
-3.72583
-3.98591
-4.17013
-4.31365
-4.43209
-4.51568
-4.57841
-4.6291
-4.66443
-4.68373
-4.69792
-4.70842
-4.71529
-4.71976
-4.72265
-4.72452
-4.72574
-4.72652
-4.72703
-4.72736
-4.72758
-4.72772
-4.72781
-4.72788
-4.72792
-4.72795
-4.72797
-4.728
-4.72803
-4.72808
-4.72817
-4.72834
-4.72863
-4.72915
-4.73003
-4.73148
-4.73379
-4.73734
-4.7427
-4.75058
-4.76196
-4.77821
-4.80127
-4.82909
-4.87446
-4.94128
-5.03576
-5.17371
-5.41032
-5.88343
-3.60394
-3.84951
-4.02174
-4.16226
-4.26736
-4.3517
-4.41094
-4.45859
-4.48555
-4.50776
-4.52258
-4.5324
-4.53883
-4.54301
-4.54573
-4.54749
-4.54863
-4.54937
-4.54985
-4.55016
-4.55036
-4.55049
-4.55058
-4.55064
-4.55068
-4.5507
-4.55073
-4.55074
-4.55077
-4.55081
-4.55088
-4.55101
-4.55125
-4.55168
-4.55243
-4.55367
-4.55569
-4.55883
-4.56361
-4.57072
-4.58111
-4.59304
-4.61139
-4.64213
-4.68621
-4.74887
-4.83757
-4.96695
-5.1866
-5.63945
-3.48367
-3.7189
-3.88177
-4.0141
-4.11231
-4.18631
-4.24773
-4.28646
-4.31706
-4.3377
-4.3515
-4.36067
-4.36669
-4.37061
-4.37315
-4.3748
-4.37587
-4.37657
-4.37702
-4.37731
-4.3775
-4.37762
-4.3777
-4.37776
-4.37779
-4.37782
-4.37784
-4.37785
-4.37787
-4.3779
-4.37795
-4.37805
-4.37824
-4.3786
-4.37924
-4.38032
-4.38208
-4.38487
-4.38754
-4.39156
-4.39926
-4.41314
-4.43319
-4.46206
-4.5034
-4.56193
-4.6452
-4.76777
-4.97692
-5.40421
-3.36484
-3.59117
-3.7444
-3.86366
-3.96074
-4.03056
-4.08824
-4.124
-4.15233
-4.17149
-4.18436
-4.19293
-4.19857
-4.20153
-4.20303
-4.20402
-4.20468
-4.20511
-4.20539
-4.20558
-4.2057
-4.20578
-4.20583
-4.20586
-4.20589
-4.2059
-4.20592
-4.20593
-4.20594
-4.20597
-4.20601
-4.20608
-4.2062
-4.2064
-4.20675
-4.20732
-4.20827
-4.20978
-4.21346
-4.21937
-4.22818
-4.24111
-4.25988
-4.28692
-4.32551
-4.38001
-4.45821
-4.57422
-4.77343
-5.18387
-3.24724
-3.46526
-3.60456
-3.72128
-3.81194
-3.8782
-3.92897
-3.96487
-3.99107
-4.00889
-4.02092
-4.02896
-4.03273
-4.0349
-4.03633
-4.03728
-4.03791
-4.03832
-4.03859
-4.03876
-4.03888
-4.03895
-4.039
-4.03904
-4.03906
-4.03907
-4.03908
-4.0391
-4.03911
-4.03913
-4.03917
-4.03924
-4.03935
-4.03954
-4.03987
-4.04053
-4.04194
-4.04421
-4.04778
-4.05324
-4.06142
-4.07348
-4.09102
-4.11624
-4.15206
-4.20271
-4.2762
-4.38586
-4.57557
-4.96358
-3.13485
-3.34095
-3.47197
-3.58137
-3.6632
-3.72878
-3.77472
-3.80879
-3.83308
-3.84972
-3.861
-3.86856
-3.8731
-3.87518
-3.87655
-3.87746
-3.87806
-3.87845
-3.87871
-3.87888
-3.87899
-3.87906
-3.87911
-3.87914
-3.87916
-3.87917
-3.87919
-3.8792
-3.87921
-3.87923
-3.87927
-3.87934
-3.87945
-3.87964
-3.87995
-3.88047
-3.88131
-3.8827
-3.88599
-3.89105
-3.89865
-3.90987
-3.92617
-3.94953
-3.98261
-4.02965
-4.09878
-4.20226
-4.38286
-4.75631
-3.01874
-3.21738
-3.34137
-3.44369
-3.51996
-3.58192
-3.62593
-3.65559
-3.67819
-3.69379
-3.7044
-3.71152
-3.71621
-3.71927
-3.72127
-3.72257
-3.72341
-3.72396
-3.72431
-3.72454
-3.72469
-3.72479
-3.72486
-3.7249
-3.72493
-3.72495
-3.72497
-3.72498
-3.725
-3.72502
-3.72506
-3.72513
-3.72525
-3.72548
-3.72586
-3.72636
-3.72717
-3.72847
-3.73053
-3.73374
-3.7395
-3.74987
-3.7649
-3.78636
-3.8168
-3.86053
-3.92558
-4.02307
-4.19487
-4.54852
-2.90315
-3.09604
-3.21247
-3.30803
-3.38118
-3.43729
-3.47981
-3.50511
-3.52623
-3.5409
-3.55091
-3.55761
-3.56203
-3.56492
-3.5668
-3.56802
-3.56882
-3.56934
-3.56967
-3.56989
-3.57003
-3.57013
-3.57019
-3.57023
-3.57026
-3.57028
-3.5703
-3.57031
-3.57033
-3.57036
-3.5704
-3.57047
-3.5706
-3.57082
-3.57121
-3.57189
-3.573
-3.57479
-3.5776
-3.58192
-3.5884
-3.59574
-3.60678
-3.62637
-3.65433
-3.69504
-3.75621
-3.85054
-4.01122
-4.35218
-2.79174
-2.97523
-3.08497
-3.17413
-3.24501
-3.29465
-3.33384
-3.35844
-3.37702
-3.39084
-3.40026
-3.40656
-3.41071
-3.41343
-3.41519
-3.41634
-3.41709
-3.41758
-3.41789
-3.4181
-3.41823
-3.41832
-3.41838
-3.41842
-3.41844
-3.41847
-3.41848
-3.4185
-3.41852
-3.41855
-3.41859
-3.41867
-3.41879
-3.41901
-3.41938
-3.42
-3.42102
-3.42266
-3.42523
-3.42916
-3.43504
-3.44366
-3.4561
-3.4734
-3.49551
-3.53295
-3.59036
-3.68144
-3.83154
-4.16045
-2.67658
-2.85486
-2.95857
-3.04177
-3.10812
-3.15381
-3.19
-3.21608
-3.23146
-3.24336
-3.25218
-3.25807
-3.26194
-3.26447
-3.26612
-3.2672
-3.2679
-3.26835
-3.26865
-3.26884
-3.26896
-3.26905
-3.2691
-3.26914
-3.26917
-3.26919
-3.2692
-3.26922
-3.26924
-3.26927
-3.26932
-3.26939
-3.26951
-3.26971
-3.27004
-3.27061
-3.27153
-3.273
-3.27529
-3.27881
-3.28408
-3.29182
-3.30304
-3.31929
-3.34305
-3.37855
-3.43232
-3.51317
-3.65551
-3.96901
-2.56522
-2.73494
-2.83306
-2.91076
-2.97267
-3.01498
-3.04816
-3.07261
-3.09016
-3.1018
-3.10696
-3.11181
-3.1154
-3.11775
-3.11928
-3.12027
-3.12092
-3.12134
-3.12161
-3.12179
-3.12191
-3.12198
-3.12203
-3.12207
-3.12209
-3.12211
-3.12213
-3.12215
-3.12217
-3.1222
-3.12224
-3.1223
-3.1224
-3.12258
-3.12288
-3.12337
-3.12417
-3.12546
-3.12748
-3.13058
-3.13524
-3.14215
-3.15227
-3.16711
-3.1891
-3.22224
-3.27236
-3.34802
-3.4828
-3.78393
-2.45055
-2.61545
-2.70835
-2.78099
-2.83853
-2.8811
-2.90821
-2.93111
-2.94756
-2.9589
-2.96649
-2.97152
-2.97483
-2.97668
-2.97763
-2.97825
-2.97867
-2.97894
-2.97911
-2.97923
-2.97931
-2.97936
-2.97939
-2.97941
-2.97943
-2.97944
-2.97945
-2.97946
-2.97947
-2.97949
-2.97952
-2.97957
-2.97965
-2.97977
-2.97998
-2.98031
-2.98084
-2.98168
-2.983
-2.98507
-2.9884
-2.99458
-3.00374
-3.01733
-3.0377
-3.06856
-3.11505
-3.18844
-3.31314
-3.60361
-2.3397
-2.49643
-2.58442
-2.65268
-2.70564
-2.74491
-2.77117
-2.7914
-2.80667
-2.8171
-2.82406
-2.82865
-2.83168
-2.83366
-2.83495
-2.83579
-2.83634
-2.8367
-2.83694
-2.83709
-2.83719
-2.83725
-2.83729
-2.83732
-2.83735
-2.83736
-2.83737
-2.83739
-2.8374
-2.83742