/*--------------------------------*- C++ -*----------------------------------*\
| =========                 |                                                 |
| \\      /  F ield         | OpenFOAM: The Open Source CFD Toolbox           |
|  \\    /   O peration     | Version:  v1912                                 |
|   \\  /    A nd           | Website:  www.openfoam.com                      |
|    \\/     M anipulation  |                                                 |
\*---------------------------------------------------------------------------*/
FoamFile
{
    version     2.0;
    format      ascii;
    class       surfaceScalarField;
    location    "31536000";
    object      psi_F;
}
// * * * * * * * * * * * * * * * * * * * * * * * * * * * * * * * * * * * * * //

dimensions      [0 1 0 0 0 0 0];


internalField   nonuniform List<scalar> 
8365
(
-156.053
-148.713
-157.899
-157.388
-157.936
-157.738
-157.963
-157.913
-157.97
-157.933
-157.975
-157.963
-157.976
-157.969
-157.976
-157.97
-157.977
-157.971
-157.977
-157.971
-157.977
-157.972
-157.977
-157.972
-157.977
-157.972
-157.977
-157.972
-157.977
-157.972
-157.977
-157.972
-157.977
-157.972
-157.977
-157.972
-157.976
-157.971
-157.974
-157.969
-157.965
-157.957
-157.937
-157.91
-157.849
-157.789
-157.25
-157.458
-148.092
-155.159
-75.6429
-128.178
-10.679
-12.7528
-8.7427
-9.52872
-7.34115
-7.93126
-6.23385
-6.72172
-5.3045
-5.7252
-4.50338
-4.87041
-3.81154
-4.12969
-3.21988
-3.49253
-2.71967
-2.95091
-2.30046
-2.49536
-1.95103
-2.1147
-1.66078
-1.7982
-1.4196
-1.53516
-1.21886
-1.31642
-1.05151
-1.13421
-0.911388
-0.98199
-0.793556
-0.853918
-0.693945
-0.745919
-0.609599
-0.65428
-0.538633
-0.576566
-0.478735
-0.511409
-0.427638
-0.455709
-0.368536
-0.408627
-0.340403
-150.102
-124.764
-157.233
-154.324
-157.716
-156.568
-157.884
-157.586
-157.926
-157.674
-157.957
-157.855
-157.964
-157.896
-157.965
-157.9
-157.966
-157.903
-157.966
-157.905
-157.967
-157.906
-157.967
-157.907
-157.967
-157.907
-157.967
-157.908
-157.967
-157.908
-157.967
-157.908
-157.967
-157.907
-157.966
-157.906
-157.964
-157.903
-157.952
-157.896
-157.903
-157.828
-157.764
-157.584
-157.403
-156.992
-155.384
-155.674
-135.359
-147.706
-65.3799
-103.508
-11.5943
-14.3825
-8.71752
-9.48195
-7.3121
-7.86178
-6.21325
-6.66536
-5.29123
-5.68279
-4.49678
-4.83869
-3.81069
-4.10765
-3.22353
-3.47812
-2.72654
-2.94236
-2.30952
-2.49128
-1.96177
-2.11425
-1.67247
-1.80022
-1.43188
-1.53879
-1.23166
-1.32136
-1.06458
-1.14004
-0.924404
-0.988395
-0.806168
-0.86046
-0.706146
-0.752225
-0.621143
-0.660316
-0.549247
-0.581862
-0.488298
-0.515809
-0.436617
-0.459094
-0.380387
-0.411577
-0.348748
-129.174
-85.8179
-153.69
-143.71
-156.449
-151.583
-157.381
-155.992
-157.606
-156.361
-157.795
-157.282
-157.834
-157.501
-157.839
-157.518
-157.843
-157.526
-157.845
-157.533
-157.847
-157.537
-157.848
-157.54
-157.849
-157.542
-157.849
-157.543
-157.849
-157.544
-157.848
-157.543
-157.847
-157.542
-157.843
-157.537
-157.836
-157.528
-157.773
-157.504
-157.513
-157.185
-156.821
-156.058
-155.282
-153.69
-148.061
-148.715
-116.029
-125.86
-52.6259
-72.4987
-12.2642
-15.4555
-8.62703
-9.38454
-7.21591
-7.73373
-6.13559
-6.55847
-5.2308
-5.597
-4.44999
-4.77054
-3.77541
-4.05439
-3.19719
-3.43644
-2.70728
-2.91035
-2.29613
-2.46675
-1.95278
-2.09538
-1.66658
-1.7857
-1.4283
-1.52779
-1.22976
-1.31282
-1.06387
-1.13331
-0.924451
-0.982764
-0.806513
-0.855654
-0.706393
-0.747795
-0.621036
-0.655647
-0.548432
-0.576893
-0.486621
-0.51008
-0.434077
-0.451871
-0.379941
-0.403032
-0.345912
-100.61
-57.8588
-141.71
-122.184
-151.173
-138.204
-154.993
-149.652
-156.051
-151.353
-156.996
-154.912
-157.191
-155.773
-157.211
-155.838
-157.222
-155.87
-157.23
-155.893
-157.236
-155.909
-157.239
-155.919
-157.242
-155.927
-157.243
-155.932
-157.244
-155.935
-157.242
-155.936
-157.238
-155.931
-157.228
-155.918
-157.202
-155.888
-156.923
-155.81
-155.746
-154.662
-152.961
-150.443
-147.195
-144.007
-126.706
-128.899
-82.6306
-93.8415
-35.4825
-49.5737
-12.573
-15.9016
-8.49244
-9.25331
-7.07754
-7.57045
-6.02092
-6.42164
-5.13758
-5.48424
-4.37561
-4.67926
-3.71596
-3.98075
-3.15002
-3.37745
-2.67015
-2.86299
-2.26627
-2.42846
-1.92852
-2.06404
-1.64708
-1.75991
-1.41245
-1.50626
-1.21648
-1.29452
-1.05231
-1.11743
-0.91406
-0.968478
-0.797021
-0.842446
-0.697133
-0.73525
-0.611589
-0.64316
-0.538629
-0.56435
-0.47543
-0.496467
-0.420944
-0.435589
-0.3691
-0.385551
-0.334135
-79.6212
-45.8407
-118.884
-91.9012
-136.812
-118.727
-146.092
-132.234
-150.265
-138.776
-153.719
-147.215
-154.445
-149.324
-154.521
-149.61
-154.564
-149.775
-154.595
-149.891
-154.616
-149.969
-154.63
-150.021
-154.64
-150.057
-154.647
-150.084
-154.65
-150.104
-154.648
-150.113
-154.635
-150.101
-154.601
-150.045
-154.519
-149.904
-153.579
-149.59
-149.417
-146.945
-141.592
-136.455
-125.903
-125.245
-96.3082
-101.628
-60.9795
-70.2786
-30.0417
-40.9796
-12.5818
-15.9491
-8.33276
-9.10029
-6.91601
-7.3906
-5.88617
-6.26948
-5.02692
-5.35876
-4.28522
-4.57642
-3.6429
-3.89659
-3.09096
-3.30916
-2.62174
-2.8067
-2.22659
-2.38225
-1.89572
-2.02571
-1.61933
-1.72747
-1.38854
-1.47836
-1.19565
-1.27026
-1.03377
-1.09572
-0.897018
-0.948757
-0.780821
-0.823891
-0.681419
-0.717418
-0.596061
-0.625834
-0.522335
-0.546961
-0.456794
-0.47696
-0.400381
-0.413377
-0.350751
-0.363055
-0.317753
-58.3125
-38.3376
-91.987
-66.8682
-114.351
-94.8161
-125.107
-109.057
-135.855
-120.861
-142.917
-129.231
-144.577
-132.133
-144.949
-133.321
-145.186
-134.09
-145.349
-134.606
-145.457
-134.942
-145.53
-135.161
-145.583
-135.315
-145.623
-135.43
-145.648
-135.516
-145.648
-135.561
-145.593
-135.522
-145.43
-135.301
-145.06
-134.697
-143.051
-133.39
-134.121
-129.769
-120.3
-118.061
-101.193
-100.635
-75.7834
-80.1645
-50.3741
-57.726
-26.9151
-35.8116
-12.4686
-15.8184
-8.1597
-8.93611
-6.74561
-7.20621
-5.74336
-6.11187
-4.90932
-5.22798
-4.18866
-4.46937
-3.56356
-3.80858
-3.0255
-3.2366
-2.5677
-2.74683
-2.18178
-2.33219
-1.85781
-1.98373
-1.5868
-1.6916
-1.36034
-1.4474
-1.17056
-1.24286
-1.01092
-1.0708
-0.87582
-0.925786
-0.760669
-0.802342
-0.662007
-0.696662
-0.576906
-0.605909
-0.501771
-0.52663
-0.43375
-0.454189
-0.376267
-0.389998
-0.330241
-0.341924
-0.303806
-46.9951
-33.1321
-69.8961
-53.4651
-89.7439
-72.668
-104.992
-88.2918
-114.429
-99.5451
-118.666
-105.556
-121.089
-109.528
-122.663
-112.136
-123.704
-113.791
-124.389
-114.86
-124.832
-115.538
-125.129
-115.974
-125.343
-116.279
-125.504
-116.506
-125.609
-116.676
-125.616
-116.778
-125.411
-116.719
-124.754
-116.316
-123.224
-115.135
-120.312
-112.411
-113.891
-107.544
-98.5915
-98.6733
-79.7995
-79.5577
-62.2291
-65.5624
-43.2278
-48.9511
-24.7346
-32.153
-12.2876
-15.5764
-7.98419
-8.7667
-6.57401
-7.02317
-5.59781
-5.95423
-4.78911
-5.09699
-4.09017
-4.36144
-3.48235
-3.71963
-2.95854
-3.16302
-2.51183
-2.68587
-2.13457
-2.2812
-1.81788
-1.94029
-1.55251
-1.65449
-1.33019
-1.41495
-1.14334
-1.21395
-0.98589
-1.04455
-0.852517
-0.901228
-0.738534
-0.779313
-0.640755
-0.674814
-0.555823
-0.585045
-0.47925
-0.50522
-0.410645
-0.431015
-0.355839
-0.368458
-0.31562
-0.326316
-0.295622
-39.668
-29.1947
-56.3588
-44.84
-71.3812
-58.7607
-83.0423
-71.0677
-90.8841
-79.1148
-96.6173
-85.3435
-100.758
-90.0751
-103.437
-93.1571
-105.114
-95.0552
-106.173
-96.2405
-106.842
-96.9873
-107.284
-97.4668
-107.601
-97.8029
-107.838
-98.0588
-108.004
-98.2613
-108.039
-98.4128
-107.782
-98.4121
-106.858
-98.0706
-104.491
-96.9039
-99.8272
-93.927
-92.5185
-88.267
-79.8086
-80.0148
-65.4499
-65.6082
-52.3731
-54.9639
-37.9239
-42.3879
-23.0103
-29.2865
-12.0576
-15.2571
-7.80727
-8.59445
-6.40492
-6.84369
-5.4547
-5.79999
-4.67039
-4.96873
-3.99179
-4.25522
-3.40104
-3.63197
-2.89096
-3.09038
-2.45575
-2.62553
-2.08735
-2.23057
-1.77727
-1.89702
-1.51724
-1.61714
-1.29899
-1.38216
-1.11541
-1.18463
-0.960121
-1.01785
-0.828243
-0.876416
-0.715797
-0.756176
-0.619297
-0.653487
-0.534633
-0.56445
-0.457183
-0.484206
-0.389023
-0.409011
-0.339086
-0.350163
-0.306401
-0.315454
-0.291234
-34.414
-26.096
-47.3232
-38.6809
-58.5626
-49.4052
-67.2821
-58.5822
-73.7287
-64.8129
-78.9602
-70.2357
-82.6377
-74.2164
-84.942
-76.7189
-86.3505
-78.2423
-87.2255
-79.1831
-87.784
-79.7852
-88.1576
-80.1707
-88.4332
-80.4473
-88.655
-80.6666
-88.8425
-80.861
-88.9573
-81.0277
-88.8706
-81.1098
-88.2834
-80.9446
-86.5017
-80.1815
-82.5226
-77.9895
-75.9128
-73.336
-65.9392
-66.1159
-55.2144
-55.6369
-45.0447
-47.1382
-33.7877
-37.32
-21.5464
-26.8949
-11.7963
-14.8829
-7.63245
-8.42248
-6.24025
-6.66973
-5.31527
-5.6503
-4.55459
-4.8442
-3.89626
-4.15256
-3.32202
-3.5472
-2.82553
-3.0201
-2.40084
-2.56709
-2.04066
-2.18091
-1.73726
-1.85497
-1.48237
-1.58055
-1.26807
-1.34995
-1.08732
-1.1556
-0.934379
-0.991277
-0.804562
-0.8521
-0.694061
-0.73402
-0.598825
-0.633652
-0.514208
-0.545248
-0.436222
-0.464366
-0.370319
-0.389079
-0.326642
-0.336694
-0.300341
-0.308554
-0.288984
-30.399
-23.6
-40.8215
-33.986
-49.5064
-42.6578
-56.2127
-49.62
-61.4307
-54.6982
-65.6122
-59.0817
-68.4256
-62.1306
-70.1524
-64.0142
-71.2112
-65.1633
-71.8809
-65.889
-72.3111
-66.3618
-72.6005
-66.662
-72.8213
-66.887
-73.0135
-67.067
-73.1871
-67.2351
-73.321
-67.3911
-73.3238
-67.5
-72.9805
-67.4299
-71.8016
-66.9406
-68.9253
-65.4362
-63.6494
-62.009
-55.9039
-56.0876
-47.629
-48.1755
-39.4637
-41.2093
-30.4572
-33.323
-20.2431
-24.8298
-11.5117
-14.4717
-7.4613
-8.25168
-6.08121
-6.50304
-5.18045
-5.50617
-4.44317
-4.72485
-3.80433
-4.05377
-3.24597
-3.4653
-2.76224
-2.9525
-2.34764
-2.51054
-1.99562
-2.13335
-1.69861
-1.81418
-1.44844
-1.54523
-1.23775
-1.31866
-1.0598
-1.12742
-0.909224
-0.965801
-0.781763
-0.829002
-0.673793
-0.713826
-0.580242
-0.615776
-0.495574
-0.527976
-0.417393
-0.446414
-0.355587
-0.372827
-0.318677
-0.327467
-0.297225
-0.304634
-0.288136
-27.2156
-21.5553
-35.8669
-30.2687
-42.8315
-37.5093
-48.1779
-42.9888
-52.4302
-47.235
-55.6895
-50.727
-57.8147
-53.063
-59.1244
-54.5176
-59.9424
-55.4185
-60.4725
-56.0056
-60.8161
-56.3849
-61.0524
-56.6313
-61.237
-56.8238
-61.3933
-56.971
-61.5439
-57.1138
-61.675
-57.2536
-61.7107
-57.3589
-61.4934
-57.3355
-60.6754
-56.9891
-58.6128
-55.9042
-54.5294
-53.3884
-48.4266
-48.6478
-41.8082
-42.384
-35.1078
-36.5944
-27.7203
-30.1088
-19.0689
-23.02
-11.2144
-14.0351
-7.29491
-8.08205
-5.92937
-6.34304
-5.05174
-5.3679
-4.33642
-4.61036
-3.71554
-3.95869
-3.17249
-3.38693
-2.70136
-2.8875
-2.29671
-2.45617
-1.95229
-2.08787
-1.66114
-1.77519
-1.41574
-1.51127
-1.20859
-1.28881
-1.03365
-1.10067
-0.88579
-0.941928
-0.76125
-0.808046
-0.655969
-0.696178
-0.56366
-0.600179
-0.478966
-0.51263
-0.401987
-0.430614
-0.344805
-0.360061
-0.313471
-0.321292
-0.29556
-0.302388
-0.288574
-24.6317
-19.8537
-31.9464
-27.2521
-37.7127
-33.4212
-42.1007
-37.904
-45.5933
-41.4887
-48.1683
-44.2887
-49.8377
-46.1478
-50.8859
-47.3281
-51.5572
-48.0725
-51.9943
-48.5673
-52.2769
-48.8837
-52.4798
-49.0973
-52.6352
-49.2586
-52.7691
-49.3852
-52.9013
-49.5136
-53.0155
-49.6314
-53.0616
-49.7266
-52.9085
-49.721
-52.2933
-49.4581
-50.7505
-48.6168
-47.5695
-46.6905
-42.6572
-42.9042
-37.2115
-37.7589
-31.6267
-32.9047
-25.4292
-27.473
-17.9958
-21.4232
-10.9056
-13.5832
-7.13165
-7.91362
-5.7829
-6.1892
-4.92765
-5.23573
-4.23356
-4.50009
-3.63084
-3.86801
-3.10257
-3.31228
-2.64284
-2.82569
-2.24777
-2.40452
-1.91113
-2.04422
-1.62563
-1.73825
-1.38461
-1.47918
-1.18114
-1.26054
-1.00917
-1.07579
-0.864377
-0.920055
-0.743136
-0.789864
-0.640526
-0.6814
-0.549278
-0.587055
-0.464409
-0.499416
-0.388806
-0.417073
-0.336622
-0.350182
-0.310239
-0.317315
-0.295403
-0.301503
-0.289583
-22.4934
-18.4129
-28.7557
-24.7535
-33.6491
-30.0799
-37.3348
-33.8679
-40.2323
-36.9111
-42.3208
-39.1983
-43.6935
-40.7394
-44.5715
-41.7374
-45.1404
-42.3791
-45.5151
-42.8001
-45.7628
-43.0777
-45.935
-43.2637
-46.0678
-43.3985
-46.1889
-43.5109
-46.3031
-43.6231
-46.4021
-43.7256
-46.4455
-43.8105
-46.3298
-43.8123
-45.8396
-43.604
-44.6121
-42.914
-42.0746
-41.3659
-38.0473
-38.3109
-33.4856
-33.9842
-28.7767
-29.8848
-23.4845
-25.2709
-17.0193
-20.0103
-10.594
-13.1276
-6.97259
-7.74779
-5.64329
-6.04171
-4.80924
-5.10958
-4.13542
-4.39517
-3.55018
-3.78194
-3.036
-3.24122
-2.58787
-2.76729
-2.20139
-2.35584
-1.87169
-2.00291
-1.5921
-1.70319
-1.35538
-1.44905
-1.15542
-1.23422
-0.98687
-1.05283
-0.84571
-0.900634
-0.728261
-0.774701
-0.628041
-0.669594
-0.537301
-0.576162
-0.452191
-0.488372
-0.378541
-0.405581
-0.330927
-0.343918
-0.308594
-0.315035
-0.29568
-0.301226
-0.290153
-20.6893
-17.1747
-26.1016
-22.6523
-30.3286
-27.2994
-33.4789
-30.578
-35.916
-33.1738
-37.6588
-35.088
-38.8271
-36.4042
-39.5898
-37.2689
-40.0843
-37.8345
-40.4087
-38.2
-40.6249
-38.4429
-40.7736
-38.6066
-40.8883
-38.7238
-40.9919
-38.8189
-41.0925
-38.9174
-41.181
-39.0061
-41.2242
-39.0823
-41.1332
-39.0957
-40.7244
-38.9251
-39.7119
-38.3409
-37.642
-37.052
-34.2817
-34.5425
-30.4111
-30.8505
-26.4005
-27.3606
-21.8117
-23.3956
-16.1265
-18.7578
-10.2841
-12.6718
-6.81829
-7.58366
-5.50921
-5.90009
-4.69653
-4.98851
-4.04253
-4.29525
-3.47367
-3.69982
-2.97307
-3.17394
-2.53572
-2.71185
-2.15775
-2.30975
-1.83474
-1.96444
-1.56042
-1.67025
-1.32814
-1.42096
-1.13184
-1.21
-0.966773
-1.03222
-0.829769
-0.884222
-0.716144
-0.762593
-0.617807
-0.660232
-0.527323
-0.567232
-0.441856
-0.479383
-0.371025
-0.396149
-0.328052
-0.339555
-0.307675
-0.314027
-0.295699
-0.301686
-0.29142
-19.1515
-16.0978
-23.8702
-20.8652
-27.5736
-24.9526
-30.3015
-27.8372
-32.3777
-30.0707
-33.8675
-31.7056
-34.8816
-32.8531
-35.55
-33.6134
-35.9871
-34.1139
-36.2714
-34.4394
-36.4621
-34.6487
-36.5944
-34.7945
-36.6922
-34.8948
-36.7823
-34.9805
-36.869
-35.063
-36.9454
-35.1423
-36.9918
-35.2115
-36.9255
-35.2312
-36.579
-35.0947
-35.7169
-34.5962
-33.9854
-33.4937
-31.1396
-31.3913
-27.8233
-28.2135
-24.374
-25.21
-20.3549
-21.7699
-15.3105
-17.6453
-9.97414
-12.2227
-6.66682
-7.4219
-5.38055
-5.76456
-4.5882
-4.87329
-3.95334
-4.1997
-3.40075
-3.62143
-2.91326
-3.10993
-2.48632
-2.65927
-2.11681
-2.26621
-1.80026
-1.92826
-1.53106
-1.6397
-1.30305
-1.39499
-1.11057
-1.18805
-0.949822
-1.01438
-0.81716
-0.870972
-0.706766
-0.753711
-0.609729
-0.653203
-0.519364
-0.560339
-0.433749
-0.472283
-0.364735
-0.389124
-0.325553
-0.336465
-0.308034
-0.314098
-0.297392
-0.302665
-0.293211
-17.8234
-15.1461
-21.9647
-19.3263
-25.2372
-22.9434
-27.6303
-25.5098
-29.4251
-27.4508
-30.7196
-28.8715
-31.6144
-29.8896
-32.2074
-30.5654
-32.5967
-31.0073
-32.8475
-31.2962
-33.0122
-31.4801
-33.1261
-31.6062
-33.2145
-31.6967
-33.2926
-31.7708
-33.3679
-31.8418
-33.44
-31.916
-33.4824
-31.9792
-33.4318
-31.9994
-33.1429
-31.891
-32.4029
-31.4685
-30.9272
-30.511
-28.4891
-28.7155
-25.6201
-25.965
-22.6217
-23.351
-19.0719
-20.3408
-14.5643
-16.651
-9.67317
-11.784
-6.52095
-7.26264
-5.25841
-5.63467
-4.48571
-4.76357
-3.86855
-4.10867
-3.33124
-3.547
-2.85645
-3.04938
-2.43958
-2.60951
-2.07801
-2.22542
-1.76799
-1.89436
-1.50388
-1.61156
-1.28019
-1.3713
-1.09202
-1.16865
-0.93566
-0.999389
-0.807609
-0.860831
-0.700207
-0.747512
-0.603865
-0.648329
-0.513312
-0.555379
-0.427712
-0.467053
-0.360888
-0.384273
-0.325015
-0.335232
-0.308723
-0.314789
-0.298475
-0.304009
-0.295164
-16.6596
-14.2931
-20.3197
-17.9881
-23.234
-21.2062
-25.3508
-23.5069
-26.9197
-25.2056
-28.0654
-26.4648
-28.8654
-27.3744
-29.3907
-27.9806
-29.7325
-28.3722
-29.9548
-28.6247
-30.1004
-28.7888
-30.2032
-28.8985
-30.2795
-28.9811
-30.3465
-29.0449
-30.4164
-29.1086
-30.4818
-29.1726
-30.5228
-29.2324
-30.4851
-29.2568
-30.2427
-29.1693
-29.6019
-28.8112
-28.3228
-27.9722
-26.2119
-26.416
-23.7131
-24.0216
-21.084
-21.7215
-17.9302
-19.0666
-13.877
-15.7571
-9.37619
-11.3569
-6.37765
-7.10579
-5.14089
-5.51001
-4.38741
-4.65824
-3.78785
-4.02191
-3.26572
-3.47629
-2.80292
-2.99212
-2.39575
-2.56296
-2.0421
-2.18731
-1.73819
-1.86295
-1.4792
-1.58559
-1.25994
-1.35017
-1.07616
-1.15187
-0.924659
-0.987337
-0.800796
-0.853789
-0.695675
-0.743452
-0.599879
-0.645187
-0.509156
-0.552096
-0.42365
-0.463599
-0.358637
-0.381122
-0.325005
-0.335166
-0.310063
-0.315786
-0.300679
-0.306136
-0.29754
-15.6308
-13.521
-18.8874
-16.815
-21.4948
-19.6924
-23.3795
-21.7636
-24.7701
-23.265
-25.7942
-24.3937
-26.5109
-25.2094
-26.9838
-25.7518
-27.2864
-26.1038
-27.4809
-26.3278
-27.6093
-26.4729
-27.699
-26.569
-27.7691
-26.6413
-27.8297
-26.7007
-27.8876
-26.7565
-27.946
-26.8132
-27.9892
-26.8683
-27.9636
-26.8954
-27.7602
-26.826
-27.2032
-26.5224
-26.0855
-25.788
-24.2434
-24.4204
-22.045
-22.3247
-19.7164
-20.2802
-16.9028
-17.9203
-13.2428
-14.9477
-9.08912
-10.9457
-6.2394
-6.95207
-5.02837
-5.39022
-4.29358
-4.55742
-3.71105
-3.93916
-3.20326
-3.40912
-2.75262
-2.93801
-2.35489
-2.51918
-2.00847
-2.1518
-1.7106
-1.83399
-1.45677
-1.56203
-1.24226
-1.33144
-1.06317
-1.1376
-0.91654
-0.978242
-0.796484
-0.849412
-0.692987
-0.741477
-0.597426
-0.643514
-0.506563
-0.55024
-0.421094
-0.461697
-0.357659
-0.379681
-0.325938
-0.33659
-0.311843
-0.317538
-0.302976
-0.308043
-0.299174
-14.7134
-12.8173
-17.6313
-15.776
-19.9749
-18.3622
-21.6645
-20.2315
-22.9054
-21.5732
-23.8265
-22.5911
-24.4686
-23.3266
-24.8906
-23.8105
-25.1643
-24.1257
-25.339
-24.3272
-25.452
-24.4586
-25.5309
-24.5435
-25.5925
-24.6074
-25.6471
-24.6597
-25.7017
-24.7103
-25.7551
-24.763
-25.7942
-24.8121
-25.7775
-24.8395
-25.6077
-24.7864
-25.1259
-24.5279
-24.1404
-23.8878
-22.5173
-22.6694
-20.5732
-20.8275
-18.4952
-18.9956
-15.9736
-16.884
-12.6558
-14.2075
-8.81111
-10.5496
-6.10412
-6.80014
-4.92024
-5.27495
-4.20381
-4.46102
-3.63789
-3.86018
-3.1444
-3.34566
-2.705
-2.88688
-2.31644
-2.47787
-1.9776
-2.11881
-1.68564
-1.80742
-1.43688
-1.54081
-1.22691
-1.31509
-1.05276
-1.12591
-0.911163
-0.971877
-0.794424
-0.847446
-0.692012
-0.741191
-0.596337
-0.643424
-0.505385
-0.549865
-0.420292
-0.461134
-0.358604
-0.379929
-0.32817
-0.33848
-0.313721
-0.319554
-0.304228
-0.310423
-0.301297
-13.8873
-12.172
-16.5169
-14.8466
-18.6309
-17.1843
-20.1537
-18.8744
-21.2736
-20.0843
-22.1066
-21.0054
-22.6844
-21.6695
-23.062
-22.1057
-23.3054
-22.3898
-23.4636
-22.5696
-23.567
-22.6899
-23.6371
-22.7657
-23.6917
-22.8226
-23.74
-22.8691
-23.7888
-22.9141
-23.8372
-22.9614
-23.8746
-23.0065
-23.8657
-23.0342
-23.7236
-22.994
-23.3061
-22.7747
-22.4321
-22.2138
-20.9933
-21.1254
-19.2618
-19.4975
-17.3944
-17.8417
-15.1255
-15.9402
-12.1061
-13.5241
-8.54102
-10.1677
-5.97217
-6.65069
-4.81666
-5.1639
-4.11816
-4.36878
-3.56857
-3.78473
-3.08863
-3.28518
-2.66015
-2.83828
-2.28056
-2.43945
-1.94889
-2.08798
-1.6628
-1.78309
-1.41918
-1.52192
-1.21419
-1.30096
-1.04509
-1.11695
-0.908186
-0.968029
-0.794214
-0.84732
-0.692597
-0.742292
-0.596947
-0.644778
-0.505612
-0.551086
-0.420767
-0.46177
-0.359794
-0.380916
-0.329849
-0.34014
-0.316234
-0.321715
-0.307463
-0.313005
-0.304085
-13.138
-11.5775
-15.5229
-14.01
-17.4385
-16.1331
-18.817
-17.6653
-19.8291
-18.7635
-20.582
-19.5986
-21.105
-20.2004
-21.448
-20.5967
-21.6688
-20.8522
-21.8107
-21.0167
-21.9035
-21.1252
-21.9663
-21.1934
-22.0151
-21.2446
-22.0582
-21.2862
-22.1019
-21.3265
-22.1459
-21.3697
-22.1813
-21.4131
-22.1777
-21.4383
-22.0601
-21.4069
-21.6969
-21.2202
-20.9206
-20.7259
-19.6417
-19.7548
-18.088
-18.3052
-16.3965
-16.8009
-14.3458
-15.0784
-11.5903
-12.8901
-8.27977
-9.80152
-5.84359
-6.50387
-4.71692
-5.05678
-4.03609
-4.28021
-3.50194
-3.7126
-3.03531
-3.2274
-2.61796
-2.79265
-2.24716
-2.40349
-1.92241
-2.05947
-1.64239
-1.76089
-1.40383
-1.5053
-1.20381
-1.28916
-1.03994
-1.11055
-0.907172
-0.966481
-0.795388
-0.848676
-0.694456
-0.744584
-0.5989
-0.647304
-0.507229
-0.553536
-0.421909
-0.463682
-0.361249
-0.382649
-0.331987
-0.342822
-0.318466
-0.324303
-0.309608
-0.315376
-0.306284
-12.4556
-11.0285
-14.6281
-13.2512
-16.3694
-15.1861
-17.6225
-16.5806
-18.5445
-17.5819
-19.2291
-18.3453
-19.7046
-18.8901
-20.0137
-19.2504
-20.2132
-19.4818
-20.3443
-19.6338
-20.4283
-19.7325
-20.4851
-19.7945
-20.5291
-19.8411
-20.5678
-19.8808
-20.6077
-19.9171
-20.6504
-19.9562
-20.6836
-19.9961
-20.6809
-20.0204
-20.5803
-19.9932
-20.2621
-19.8309
-19.5722
-19.3967
-18.4292
-18.5267
-17.0276
-17.2278
-15.4909
-15.8573
-13.6291
-14.2925
-11.1057
-12.2991
-8.0279
-9.45196
-5.71819
-6.36024
-4.62094
-4.95334
-3.95743
-4.19519
-3.43863
-3.64357
-2.98519
-3.1725
-2.57853
-2.74948
-2.21608
-2.36959
-1.89817
-2.03344
-1.62397
-1.74097
-1.39075
-1.49071
-1.19597
-1.27966
-1.03712
-1.10647
-0.907978
-0.966984
-0.79785
-0.851386
-0.697405
-0.748036
-0.601913
-0.650888
-0.509964
-0.556874
-0.424399
-0.466767
-0.364196
-0.385626
-0.33511
-0.345433
-0.321188
-0.327335
-0.31203
-0.318302
-0.308725
-11.8298
-10.5222
-13.8165
-12.5589
-15.4059
-14.3296
-16.5496
-15.6018
-17.3931
-16.521
-18.0172
-17.2184
-18.4471
-17.7135
-18.73
-18.041
-18.9141
-18.2568
-19.0337
-18.3945
-19.1105
-18.4854
-19.1624
-18.5433
-19.2048
-18.5858
-19.242
-18.6226
-19.2776
-18.6571
-19.314
-18.6921
-19.3449
-18.7267
-19.3447
-18.7517
-19.2558
-18.7279
-18.977
-18.5859
-18.3621
-18.2026
-17.3352
-17.4203
-16.0662
-16.2501
-14.6663
-14.9998
-12.9684
-13.5726
-10.6495
-11.7466
-7.78648
-9.11673
-5.59648
-6.21916
-4.52841
-4.85334
-3.88201
-4.11347
-3.37799
-3.57744
-2.93723
-3.12006
-2.54088
-2.7084
-2.18721
-2.33791
-1.87643
-2.00925
-1.60785
-1.72316
-1.37971
-1.47803
-1.19021
-1.2724
-1.03634
-1.10433
-0.91037
-0.969151
-0.801539
-0.855309
-0.701482
-0.752599
-0.605814
-0.65539
-0.513644
-0.561245
-0.427961
-0.470771
-0.366839
-0.389889
-0.337635
-0.348138
-0.32442
-0.330505
-0.31497
-0.321386
-0.312012
-11.2565
-10.0552
-13.0787
-11.9255
-14.5334
-13.5522
-15.582
-14.7155
-16.3556
-15.5622
-16.9245
-16.1985
-17.3175
-16.6524
-17.5782
-16.9526
-17.7477
-17.1532
-17.8567
-17.28
-17.9289
-17.3639
-17.9775
-17.4194
-18.0144
-17.4582
-18.0485
-17.4897
-18.0824
-17.5211
-18.1156
-17.5547
-18.1443
-17.5867
-18.1456
-17.6101
-18.0686
-17.5906
-17.8218
-17.4635
-17.2707
-17.1223
-16.3441
-16.4209
-15.1916
-15.3599
-13.9129
-14.2156
-12.3563
-12.9098
-10.2177
-11.2297
-7.55152
-8.79571
-5.47709
-6.08024
-4.43919
-4.75657
-3.80955
-4.03483
-3.32002
-3.514
-2.89164
-3.07001
-2.50575
-2.66985
-2.1602
-2.30832
-1.85616
-1.98708
-1.59347
-1.70712
-1.3708
-1.46732
-1.18656
-1.26706
-1.03713
-1.10409
-0.914057
-0.972435
-0.806326
-0.860353
-0.706462
-0.75806
-0.610776
-0.660835
-0.518329
-0.566655
-0.432656
-0.475737
-0.371149
-0.3942
-0.340978
-0.35191
-0.327444
-0.333644
-0.318397
-0.324738
-0.315289
-10.729
-9.62194
-12.4051
-11.3452
-13.7414
-12.8406
-14.7037
-13.9105
-15.4136
-14.6905
-15.9354
-15.2727
-16.2967
-15.6897
-16.537
-15.9679
-16.695
-16.1534
-16.7967
-16.2722
-16.864
-16.3494
-16.9098
-16.4017
-16.9431
-16.4374
-16.972
-16.4676
-17.0031
-16.4946
-17.0356
-16.5254
-17.0623
-16.5551
-17.0648
-16.5768
-16.9952
-16.5605
-16.7735
-16.4456
-16.2815
-16.1401
-15.4448
-15.511
-14.3911
-14.5459
-13.2187
-13.4968
-11.7883
-12.2989
-9.81131
-10.7457
-7.32646
-8.48975
-5.36076
-5.94488
-4.35298
-4.66283
-3.7399
-3.95906
-3.26449
-3.45305
-2.84861
-3.0222
-2.47272
-2.63336
-2.13542
-2.28068
-1.83821
-1.9668
-1.58109
-1.69277
-1.36365
-1.45864
-1.18461
-1.26345
-1.03938
-1.10538
-0.918689
-0.976769
-0.812035
-0.866029
-0.712379
-0.764186
-0.616661
-0.667146
-0.524012
-0.572863
-0.437241
-0.481614
-0.374927
-0.398705
-0.344544
-0.356038
-0.330906
-0.337146
-0.321601
-0.328083
-0.318314
-10.2426
-9.22191
-11.7863
-10.8106
-13.0162
-12.1872
-13.9045
-13.1759
-14.5573
-13.8957
-15.0351
-14.4302
-15.3692
-14.8139
-15.5928
-15.0744
-15.7392
-15.2447
-15.8335
-15.3568
-15.8958
-15.4284
-15.9381
-15.4769
-15.9707
-15.5098
-15.999
-15.5376
-16.0256
-15.564
-16.0537
-15.5903
-16.0785
-15.6174
-16.0814
-15.6381
-16.0198
-15.6245
-15.8209
-15.5219
-15.3778
-15.2451
-14.6196
-14.6781
-13.6583
-13.7972
-12.5827
-12.8364
-11.2611
-11.735
-9.42759
-10.2922
-7.11012
-8.19839
-5.24796
-5.81246
-4.26966
-4.57194
-3.67282
-3.88597
-3.21124
-3.39442
-2.80731
-2.97644
-2.4416
-2.59845
-2.11226
-2.25484
-1.82151
-1.94804
-1.57041
-1.68011
-1.35848
-1.45164
-1.18423
-1.26164
-1.04275
-1.10805
-0.92406
-0.982048
-0.818125
-0.872331
-0.718894
-0.770913
-0.623289
-0.674054
-0.530407
-0.579672
-0.443026
-0.488074
-0.379773
-0.40454
-0.348604
-0.360272
-0.334292
-0.340916
-0.324767
-0.331399
-0.321641
-9.794
-8.85205
-11.2166
-10.3168
-12.3528
-11.5871
-13.1736
-12.5016
-13.7756
-13.1662
-14.2163
-13.6604
-14.5267
-14.0147
-14.7341
-14.2583
-14.8701
-14.4165
-14.9596
-14.5208
-15.0174
-14.5891
-15.0565
-14.634
-15.0846
-14.6644
-15.1105
-14.6879
-15.1366
-14.7137
-15.162
-14.7379
-15.1851
-14.7626
-15.1892
-14.7825
-15.1346
-14.7715
-14.9539
-14.678
-14.5528
-14.4262
-13.8626
-13.914
-12.9814
-13.1079
-11.994
-12.2252
-10.7705
-11.2121
-9.06622
-9.86814
-6.9026
-7.92112
-5.13743
-5.68236
-4.18897
-4.48372
-3.60815
-3.81533
-3.16008
-3.33792
-2.76793
-2.93256
-2.41196
-2.56529
-2.09081
-2.23068
-1.80677
-1.93116
-1.56142
-1.66909
-1.35483
-1.44603
-1.18545
-1.26124
-1.04731
-1.11181
-0.930262
-0.988155
-0.825057
-0.879224
-0.726009
-0.778245
-0.630374
-0.681401
-0.537277
-0.587089
-0.44953
-0.495156
-0.384992
-0.410904
-0.352548
-0.365169
-0.33799
-0.3448
-0.328241
-0.334877
-0.32773
-9.37858
-8.50809
-10.692
-9.85959
-11.7414
-11.0331
-12.5002
-11.881
-13.0575
-12.4957
-13.4656
-12.953
-13.7533
-13.2829
-13.9478
-13.5094
-14.0743
-13.6582
-14.1575
-13.7535
-14.2129
-13.8187
-14.2491
-13.8604
-14.2749
-13.8883
-14.2984
-13.9099
-14.3223
-13.9335
-14.3458
-13.9556
-14.3673
-13.9797
-14.3722
-13.9973
-14.3223
-13.9887
-14.1575
-13.9036
-13.7942
-13.6753
-13.1656
-13.2101
-12.3572
-12.473
-11.4482
-11.6585
-10.3138
-10.7248
-8.72611
-9.47171
-6.70268
-7.65639
-5.02962
-5.55523
-4.11078
-4.39797
-3.54566
-3.74697
-3.11085
-3.28336
-2.73027
-2.89042
-2.38425
-2.53374
-2.0712
-2.20803
-1.7936
-1.91552
-1.55377
-1.65957
-1.35246
-1.44171
-1.18758
-1.26196
-1.05261
-1.11631
-0.937055
-0.994872
-0.832347
-0.886711
-0.733569
-0.785961
-0.638047
-0.689308
-0.544899
-0.595104
-0.456468
-0.502871
-0.391027
-0.417748
-0.357378
-0.370098
-0.341655
-0.3489
-0.334311
-0.338391
-0.3311
-8.99257
-8.18784
-10.2051
-9.43518
-11.1778
-10.5203
-11.882
-11.308
-12.3971
-11.8774
-12.7765
-12.3013
-13.0453
-12.6102
-13.2263
-12.8209
-13.344
-12.9594
-13.4213
-13.0495
-13.4728
-13.1085
-13.5063
-13.1472
-13.53
-13.1746
-13.5517
-13.1943
-13.5735
-13.216
-13.5962
-13.2361
-13.6164
-13.2584
-13.6206
-13.2751
-13.5768
-13.2688
-13.428
-13.1932
-13.0974
-12.9844
-12.5233
-12.5596
-11.7795
-11.8851
-10.9398
-11.1317
-9.88654
-10.2688
-8.40488
-9.09958
-6.51066
-7.40353
-4.92453
-5.4316
-4.03484
-4.31402
-3.48521
-3.68069
-3.06335
-3.23058
-2.69421
-2.84983
-2.35775
-2.50365
-2.05252
-2.18651
-1.78159
-1.9012
-1.54756
-1.65135
-1.35121
-1.43871
-1.19066
-1.26357
-1.05852
-1.12143
-0.944461
-1.00178
-0.840254
-0.894506
-0.741627
-0.794042
-0.646291
-0.69766
-0.553004
-0.603519
-0.464083
-0.511194
-0.396766
-0.425228
-0.361582
-0.374934
-0.3456
-0.353209
-0.335173
-0.342975
-0.331984
-8.63369
-7.88814
-9.75445
-9.04124
-10.6552
-10.0446
-11.3085
-10.7771
-11.7871
-11.3055
-12.1407
-11.7006
-12.3916
-11.9885
-12.56
-12.1854
-12.671
-12.3142
-12.7428
-12.3996
-12.7891
-12.4534
-12.8216
-12.4901
-12.845
-12.5156
-12.8649
-12.5338
-12.8848
-12.5536
-12.9045
-12.5719
-12.9234
-12.5928
-12.9295
-12.6085
-12.8914
-12.6041
-12.7557
-12.5373
-12.4523
-12.345
-11.9267
-11.9566
-11.2421
-11.3391
-10.465
-10.6408
-9.48545
-9.8395
-8.10096
-8.74929
-6.32613
-7.16266
-4.82202
-5.31016
-3.96054
-4.2322
-3.42658
-3.6159
-3.01746
-3.1794
-2.65958
-2.81064
-2.33263
-2.47487
-2.03534
-2.16626
-1.77105
-1.88806
-1.54255
-1.64405
-1.35107
-1.43682
-1.19431
-1.26609
-1.06463
-1.12701
-0.951759
-1.0089
-0.848222
-0.902293
-0.75
-0.802314
-0.654812
-0.706126
-0.561632
-0.612288
-0.472266
-0.520014
-0.403337
-0.433123
-0.366518
-0.3804
-0.35054
-0.357641
-0.339746
-0.346833
-0.335469
-8.29872
-7.60617
-9.33511
-8.67452
-10.1709
-9.60207
-10.7789
-10.2847
-11.2241
-10.7753
-11.5537
-11.1451
-11.7877
-11.4136
-11.9452
-11.5968
-12.0484
-11.718
-12.1158
-11.7975
-12.1601
-11.8476
-12.1898
-11.8817
-12.2101
-11.9054
-12.2283
-11.922
-12.2465
-11.9402
-12.2661
-11.957
-12.2837
-11.9765
-12.2888
-11.9911
-12.2558
-11.9882
-12.1323
-11.9281
-11.8546
-11.7541
-11.3739
-11.3975
-10.7422
-10.8306
-10.0193
-10.1821
-9.10675
-9.43554
-7.81358
-8.41862
-6.14829
-6.933
-4.72125
-5.19085
-3.88822
-4.15235
-3.36924
-3.55288
-2.97298
-3.12931
-2.62624
-2.77253
-2.30871
-2.44701
-2.01913
-2.14715
-1.76115
-1.8758
-1.53836
-1.63771
-1.35183
-1.43564
-1.19875
-1.26931
-1.07122
-1.13297
-0.959371
-1.0162
-0.856312
-0.910188
-0.758365
-0.81054
-0.663524
-0.71474
-0.57059
-0.621256
-0.480795
-0.529066
-0.410125
-0.441342
-0.371479
-0.38599
-0.353904
-0.362043
-0.34253
-0.35007
-0.338996
-7.9848
-7.33877
-8.94498
-8.33111
-9.71992
-9.19065
-10.2854
-9.82565
-10.7009
-10.2823
-11.0098
-10.6282
-11.2276
-10.8791
-11.3747
-11.0497
-11.4722
-11.164
-11.5345
-11.2381
-11.5745
-11.2846
-11.6026
-11.3169
-11.6226
-11.3387
-11.6393
-11.3548
-11.656
-11.3707
-11.6728
-11.3865
-11.6892
-11.404
-11.6958
-11.4191
-11.6659
-11.4161
-11.5551
-11.3631
-11.302
-11.205
-10.8589
-10.877
-10.2747
-10.3567
-9.60213
-9.7516
-8.75062
-9.05514
-7.5405
-8.10564
-5.9771
-6.71306
-4.62283
-5.07477
-3.81764
-4.07431
-3.31345
-3.49146
-2.92926
-3.08054
-2.5936
-2.73536
-2.28566
-2.42012
-2.00396
-2.1288
-1.75244
-1.86453
-1.53502
-1.63207
-1.35311
-1.43508
-1.20349
-1.2729
-1.07789
-1.13904
-0.966952
-1.02348
-0.864344
-0.918179
-0.766839
-0.81886
-0.672393
-0.723469
-0.579651
-0.630385
-0.489535
-0.538373
-0.417144
-0.449877
-0.376508
-0.391829
-0.358171
-0.36659
-0.3465
-0.356918
-0.343454
-7.68776
-7.08505
-8.58007
-8.0085
-9.30016
-8.80613
-9.82666
-9.39692
-10.214
-9.82404
-10.5021
-10.1466
-10.7059
-10.3812
-10.8438
-10.5413
-10.9348
-10.648
-10.9931
-10.7173
-11.0318
-10.7608
-11.0579
-10.7923
-11.0759
-10.8113
-11.0912
-10.8274
-11.1062
-10.8408
-11.1228
-10.8565
-11.1389
-10.8725
-11.1443
-10.8867
-11.1182
-10.8832
-11.0177
-10.8375
-10.7846
-10.6929