/*--------------------------------*- C++ -*----------------------------------*\
| =========                 |                                                 |
| \\      /  F ield         | OpenFOAM: The Open Source CFD Toolbox           |
|  \\    /   O peration     | Version:  v1912                                 |
|   \\  /    A nd           | Website:  www.openfoam.com                      |
|    \\/     M anipulation  |                                                 |
\*---------------------------------------------------------------------------*/
FoamFile
{
    version     2.0;
    format      ascii;
    class       volScalarField;
    location    "31536000";
    object      T;
}
// * * * * * * * * * * * * * * * * * * * * * * * * * * * * * * * * * * * * * //

dimensions      [0 0 0 1 0 0 0];


internalField   nonuniform List<scalar> 
4250
(
260.352
260.387
260.42
260.448
260.47
260.487
260.501
260.511
260.519
260.525
260.53
260.534
260.537
260.539
260.54
260.541
260.542
260.543
260.543
260.543
260.544
260.544
260.544
260.544
260.544
260.544
260.544
260.544
260.544
260.544
260.545
260.545
260.546
260.548
260.55
260.552
260.556
260.56
260.566
260.574
260.584
260.597
260.613
260.634
260.659
260.69
260.728
260.772
260.818
260.855
260.349
260.384
260.417
260.445
260.467
260.484
260.498
260.508
260.516
260.523
260.527
260.531
260.534
260.536
260.538
260.539
260.539
260.54
260.54
260.541
260.541
260.541
260.541
260.541
260.541
260.541
260.541
260.541
260.542
260.542
260.542
260.543
260.544
260.545
260.547
260.549
260.553
260.557
260.564
260.571
260.581
260.594
260.61
260.63
260.655
260.686
260.724
260.768
260.815
260.853
260.343
260.378
260.412
260.44
260.462
260.479
260.492
260.503
260.511
260.517
260.522
260.526
260.529
260.531
260.532
260.533
260.534
260.535
260.535
260.536
260.536
260.536
260.536
260.536
260.536
260.536
260.536
260.536
260.536
260.537
260.537
260.538
260.539
260.54
260.542
260.544
260.548
260.552
260.558
260.566
260.576
260.589
260.604
260.624
260.649
260.68
260.718
260.762
260.808
260.847
260.335
260.371
260.404
260.432
260.454
260.471
260.485
260.495
260.504
260.51
260.515
260.518
260.521
260.523
260.525
260.526
260.527
260.527
260.528
260.528
260.528
260.528
260.528
260.528
260.528
260.529
260.529
260.529
260.529
260.529
260.529
260.53
260.531
260.532
260.534
260.537
260.54
260.544
260.55
260.558
260.568
260.58
260.596
260.616
260.641
260.671
260.709
260.752
260.799
260.84
260.326
260.361
260.394
260.422
260.444
260.462
260.475
260.486
260.494
260.5
260.505
260.509
260.511
260.513
260.515
260.516
260.517
260.518
260.518
260.518
260.518
260.519
260.519
260.519
260.519
260.519
260.519
260.519
260.519
260.519
260.52
260.52
260.521
260.522
260.524
260.527
260.53
260.534
260.54
260.548
260.558
260.57
260.586
260.605
260.63
260.66
260.697
260.741
260.788
260.83
260.315
260.35
260.383
260.411
260.433
260.45
260.463
260.474
260.482
260.488
260.493
260.497
260.5
260.502
260.503
260.504
260.505
260.506
260.506
260.506
260.507
260.507
260.507
260.507
260.507
260.507
260.507
260.507
260.507
260.507
260.508
260.508
260.509
260.511
260.512
260.515
260.518
260.522
260.528
260.536
260.545
260.557
260.573
260.592
260.616
260.646
260.683
260.727
260.775
260.818
260.302
260.337
260.37
260.398
260.42
260.437
260.45
260.461
260.469
260.475
260.48
260.483
260.486
260.488
260.49
260.491
260.492
260.492
260.493
260.493
260.493
260.493
260.493
260.493
260.493
260.493
260.493
260.493
260.494
260.494
260.494
260.495
260.496
260.497
260.499
260.501
260.504
260.509
260.514
260.522
260.531
260.543
260.558
260.577
260.601
260.631
260.667
260.711
260.759
260.804
260.288
260.324
260.357
260.384
260.405
260.422
260.435
260.446
260.454
260.46
260.465
260.468
260.471
260.473
260.475
260.476
260.476
260.477
260.477
260.478
260.478
260.478
260.478
260.478
260.478
260.478
260.478
260.478
260.478
260.479
260.479
260.48
260.48
260.482
260.483
260.486
260.489
260.493
260.499
260.506
260.515
260.527
260.542
260.561
260.584
260.613
260.649
260.693
260.741
260.787
260.273
260.309
260.342
260.368
260.39
260.406
260.419
260.43
260.437
260.444
260.448
260.452
260.455
260.457
260.458
260.459
260.46
260.461
260.461
260.461
260.461
260.462
260.462
260.462
260.462
260.462
260.462
260.462
260.462
260.462
260.463
260.463
260.464
260.465
260.467
260.469
260.472
260.476
260.482
260.489
260.498
260.51
260.524
260.542
260.565
260.594
260.63
260.673
260.722
260.77
260.257
260.294
260.326
260.352
260.373
260.389
260.402
260.412
260.42
260.426
260.431
260.434
260.437
260.439
260.441
260.442
260.443
260.443
260.444
260.444
260.444
260.444
260.444
260.444
260.444
260.444
260.444
260.444
260.445
260.445
260.445
260.446
260.446
260.448
260.449
260.451
260.454
260.459
260.464
260.471
260.48
260.491
260.505
260.523
260.546
260.574
260.609
260.651
260.701
260.75
260.241
260.277
260.309
260.335
260.356
260.372
260.384
260.394
260.402
260.408
260.413
260.416
260.419
260.421
260.422
260.423
260.424
260.425
260.425
260.425
260.426
260.426
260.426
260.426
260.426
260.426
260.426
260.426
260.426
260.426
260.427
260.427
260.428
260.429
260.431
260.433
260.436
260.44
260.445
260.452
260.46
260.471
260.485
260.503
260.525
260.553
260.587
260.629
260.678
260.729
260.223
260.26
260.291
260.317
260.337
260.353
260.366
260.376
260.383
260.389
260.393
260.397
260.4
260.402
260.403
260.404
260.405
260.405
260.406
260.406
260.406
260.406
260.406
260.407
260.407
260.407
260.407
260.407
260.407
260.407
260.407
260.408
260.409
260.41
260.411
260.413
260.416
260.42
260.425
260.432
260.44
260.451
260.465
260.482
260.503
260.53
260.564
260.605
260.654
260.706
260.204
260.242
260.273
260.298
260.318
260.334
260.346
260.356
260.363
260.369
260.374
260.377
260.38
260.382
260.383
260.384
260.385
260.385
260.386
260.386
260.386
260.386
260.386
260.386
260.387
260.387
260.387
260.387
260.387
260.387
260.387
260.388
260.389
260.39
260.391
260.393
260.396
260.4
260.405
260.411
260.419
260.43
260.443
260.46
260.481
260.507
260.54
260.581
260.63
260.683
260.185
260.223
260.254
260.279
260.299
260.314
260.326
260.336
260.343
260.349
260.353
260.356
260.359
260.361
260.362
260.363
260.364
260.365
260.365
260.365
260.366
260.366
260.366
260.366
260.366
260.366
260.366
260.366
260.366
260.366
260.367
260.367
260.368
260.369
260.37
260.372
260.375
260.379
260.383
260.39
260.398
260.408
260.421
260.437
260.458
260.484
260.516
260.556
260.605
260.658
260.166
260.204
260.235
260.259
260.279
260.294
260.306
260.315
260.322
260.328
260.332
260.335
260.338
260.34
260.341
260.342
260.343
260.343
260.344
260.344
260.344
260.344
260.344
260.344
260.344
260.344
260.345
260.345
260.345
260.345
260.345
260.346
260.346
260.347
260.349
260.351
260.353
260.357
260.362
260.368
260.376
260.386
260.398
260.414
260.434
260.459
260.491
260.531
260.579
260.633
260.145
260.184
260.215
260.239
260.258
260.273
260.284
260.293
260.3
260.306
260.31
260.313
260.316
260.318
260.319
260.32
260.321
260.321
260.322
260.322
260.322
260.322
260.322
260.323
260.323
260.323
260.323
260.323
260.323
260.323
260.323
260.324
260.324
260.325
260.327
260.329
260.331
260.335
260.339
260.345
260.353
260.363
260.375
260.39
260.41
260.434
260.465
260.504
260.552
260.607
260.125
260.164
260.194
260.218
260.237
260.251
260.263
260.271
260.278
260.284
260.288
260.291
260.294
260.295
260.297
260.298
260.299
260.299
260.299
260.3
260.3
260.3
260.3
260.3
260.3
260.3
260.3
260.3
260.3
260.301
260.301
260.301
260.302
260.303
260.304
260.306
260.309
260.312
260.316
260.322
260.33
260.339
260.351
260.366
260.385
260.409
260.439
260.478
260.525
260.581
260.104
260.143
260.174
260.197
260.215
260.229
260.241
260.249
260.256
260.261
260.265
260.268
260.271
260.273
260.274
260.275
260.276
260.276
260.277
260.277
260.277
260.277
260.277
260.277
260.277
260.277
260.277
260.277
260.278
260.278
260.278
260.278
260.279
260.28
260.281
260.283
260.285
260.289
260.293
260.299
260.306
260.315
260.327
260.341
260.36
260.383
260.413
260.451
260.498
260.554
260.083
260.122
260.152
260.175
260.193
260.207
260.218
260.227
260.233
260.238
260.242
260.245
260.248
260.25
260.251
260.252
260.253
260.253
260.253
260.254
260.254
260.254
260.254
260.254
260.254
260.254
260.254
260.254
260.254
260.255
260.255
260.255
260.256
260.257
260.258
260.26
260.262
260.265
260.269
260.275
260.282
260.291
260.302
260.316
260.334
260.357
260.386
260.423
260.47
260.527
260.061
260.101
260.131
260.154
260.171
260.185
260.195
260.204
260.21
260.215
260.219
260.222
260.224
260.226
260.227
260.228
260.229
260.23
260.23
260.23
260.23
260.23
260.231
260.231
260.231
260.231
260.231
260.231
260.231
260.231
260.231
260.232
260.232
260.233
260.234
260.236
260.238
260.241
260.245
260.251
260.258
260.266
260.277
260.291
260.309
260.331
260.359
260.396
260.442
260.499
260.039
260.08
260.109
260.131
260.149
260.162
260.172
260.18
260.187
260.192
260.195
260.198
260.201
260.202
260.204
260.205
260.205
260.206
260.206
260.206
260.207
260.207
260.207
260.207
260.207
260.207
260.207
260.207
260.207
260.207
260.207
260.208
260.208
260.209
260.21
260.212
260.214
260.217
260.221
260.226
260.233
260.241
260.252
260.265
260.282
260.304
260.332
260.368
260.414
260.471
260.017
260.058
260.087
260.109
260.126
260.139
260.149
260.157
260.163
260.168
260.172
260.175
260.177
260.178
260.18
260.181
260.181
260.182
260.182
260.182
260.182
260.183
260.183
260.183
260.183
260.183
260.183
260.183
260.183
260.183
260.183
260.184
260.184
260.185
260.186
260.188
260.19
260.193
260.197
260.202
260.208
260.216
260.227
260.24
260.256
260.277
260.304
260.339
260.385
260.443
259.995
260.036
260.065
260.087
260.103
260.116
260.125
260.133
260.139
260.144
260.148
260.15
260.153
260.154
260.156
260.156
260.157
260.158
260.158
260.158
260.158
260.158
260.158
260.158
260.159
260.159
260.159
260.159
260.159
260.159
260.159
260.159
260.16
260.161
260.162
260.163
260.165
260.168
260.172
260.177
260.183
260.191
260.201
260.214
260.23
260.25
260.277
260.311
260.357
260.415
259.973
260.014
260.043
260.064
260.08
260.092
260.102
260.109
260.115
260.12
260.124
260.126
260.128
260.13
260.131
260.132
260.133
260.133
260.134
260.134
260.134
260.134
260.134
260.134
260.134
260.134
260.134
260.134
260.134
260.134
260.135
260.135
260.136
260.136
260.137
260.139
260.141
260.144
260.147
260.152
260.158
260.166
260.175
260.188
260.203
260.223
260.249
260.283
260.328
260.386
259.951
259.992
260.02
260.041
260.057
260.069
260.078
260.085
260.091
260.096
260.099
260.102
260.104
260.106
260.107
260.108
260.108
260.109
260.109
260.109
260.109
260.11
260.11
260.11
260.11
260.11
260.11
260.11
260.11
260.11
260.11
260.111
260.111
260.112
260.113
260.114
260.116
260.119
260.122
260.127
260.133
260.14
260.15
260.161
260.177
260.196
260.221
260.254
260.299
260.358
259.929
259.97
259.998
260.018
260.034
260.045
260.054
260.062
260.067
260.072
260.075
260.078
260.08
260.081
260.082
260.083
260.084
260.084
260.085
260.085
260.085
260.085
260.085
260.085
260.085
260.085
260.085
260.085
260.085
260.085
260.086
260.086
260.086
260.087
260.088
260.089
260.091
260.094
260.097
260.102
260.107
260.115
260.124
260.135
260.15
260.169
260.193
260.226
260.27
260.329
259.907
259.948
259.976
259.995
260.01
260.022
260.031
260.038
260.043
260.047
260.051
260.053
260.055
260.057
260.058
260.059
260.059
260.06
260.06
260.06
260.06
260.06
260.06
260.06
260.06
260.061
260.061
260.061
260.061
260.061
260.061
260.061
260.062
260.062
260.063
260.065
260.067
260.069
260.072
260.077
260.082
260.089
260.098
260.109
260.123
260.141
260.165
260.197
260.24
260.3
259.884
259.926
259.953
259.972
259.987
259.998
260.007
260.013
260.019
260.023
260.026
260.029
260.031
260.032
260.033
260.034
260.035
260.035
260.035
260.036
260.036
260.036
260.036
260.036
260.036
260.036
260.036
260.036
260.036
260.036
260.036
260.037
260.037
260.038
260.039
260.04
260.042
260.044
260.047
260.051
260.057
260.063
260.072
260.083
260.097
260.114
260.137
260.168
260.211
260.271
259.862
259.904
259.931
259.95
259.964
259.975
259.983
259.989
259.995
259.999
260.002
260.004
260.006
260.008
260.009
260.009
260.01
260.01
260.011
260.011
260.011
260.011
260.011
260.011
260.011
260.011
260.011
260.011
260.011
260.012
260.012
260.012
260.012
260.013
260.014
260.015
260.017
260.019
260.022
260.026
260.031
260.038
260.046
260.057
260.07
260.087
260.109
260.14
260.182
260.242
259.84
259.881
259.908
259.927
259.94
259.951
259.959
259.965
259.97
259.974
259.977
259.98
259.982
259.983
259.984
259.985
259.985
259.986
259.986
259.986
259.986
259.987
259.987
259.987
259.987
259.987
259.987
259.987
259.987
259.987
259.987
259.987
259.988
259.988
259.989
259.99
259.992
259.994
259.997
260.001
260.006
260.012
260.02
260.03
260.043
260.06
260.082
260.111
260.153
260.213
259.818
259.859
259.886
259.904
259.917
259.927
259.935
259.942
259.946
259.95
259.953
259.956
259.957
259.959
259.96
259.96
259.961
259.961
259.962
259.962
259.962
259.962
259.962
259.962
259.962
259.962
259.962
259.962
259.962
259.962
259.963
259.963
259.963
259.964
259.965
259.966
259.967
259.97
259.972
259.976
259.981
259.987
259.995
260.004
260.017
260.033
260.054
260.083
260.124
260.184
259.796
259.838
259.863
259.881
259.894
259.904
259.912
259.918
259.922
259.926
259.929
259.931
259.933
259.934
259.935
259.936
259.937
259.937
259.937
259.937
259.938
259.938
259.938
259.938
259.938
259.938
259.938
259.938
259.938
259.938
259.938
259.938
259.939
259.939
259.94
259.941
259.943
259.945
259.948
259.951
259.956
259.962
259.969
259.978
259.991
260.006
260.027
260.055
260.096
260.155
259.775
259.816
259.841
259.858
259.871
259.881
259.888
259.894
259.899
259.902
259.905
259.907
259.909
259.91
259.911
259.912
259.912
259.913
259.913
259.913
259.913
259.913
259.913
259.913
259.913
259.913
259.913
259.913
259.914
259.914
259.914
259.914
259.914
259.915
259.916
259.917
259.918
259.92
259.923
259.926
259.931
259.936
259.944
259.953
259.964
259.979
259.999
260.027
260.067
260.127
259.753
259.794
259.819
259.836
259.848
259.858
259.865
259.87
259.875
259.878
259.881
259.883
259.885
259.886
259.887
259.888
259.888
259.888
259.889
259.889
259.889
259.889
259.889
259.889
259.889
259.889
259.889
259.889
259.889
259.889
259.89
259.89
259.89
259.891
259.891
259.892
259.894
259.896
259.898
259.902
259.906
259.911
259.918
259.927
259.938
259.953
259.972
259.999
260.038
260.098
259.732
259.772
259.797
259.813
259.825
259.834
259.841
259.847
259.851
259.854
259.857
259.859
259.861
259.862
259.863
259.864
259.864
259.864
259.865
259.865
259.865
259.865
259.865
259.865
259.865
259.865
259.865
259.865
259.865
259.865
259.865
259.866
259.866
259.867
259.867
259.868
259.87
259.871
259.874
259.877
259.881
259.886
259.893
259.902
259.912
259.926
259.945
259.971
260.01
260.069
259.71
259.751
259.775
259.791
259.803
259.812
259.818
259.823
259.828
259.831
259.833
259.835
259.837
259.838
259.839
259.84
259.84
259.84
259.841
259.841
259.841
259.841
259.841
259.841
259.841
259.841
259.841
259.841
259.841
259.841
259.842
259.842
259.842
259.843
259.843
259.844
259.846
259.847
259.85
259.853
259.857
259.862
259.868
259.876
259.887
259.9
259.918
259.944
259.982
260.041
259.689
259.73
259.753
259.769
259.78
259.789
259.795
259.8
259.804
259.807
259.81
259.812
259.813
259.814
259.815
259.816
259.816
259.817
259.817
259.817
259.817
259.817
259.817
259.817
259.817
259.817
259.817
259.818
259.818
259.818
259.818
259.818
259.818
259.819
259.819
259.82
259.822
259.823
259.826
259.829
259.832
259.837
259.843
259.851
259.861
259.874
259.892
259.917
259.954
260.013
259.669
259.708
259.732
259.747
259.758
259.766
259.772
259.777
259.781
259.784
259.787
259.788
259.79
259.791
259.792
259.792
259.793
259.793
259.793
259.794
259.794
259.794
259.794
259.794
259.794
259.794
259.794
259.794
259.794
259.794
259.794
259.794
259.795
259.795
259.796
259.797
259.798
259.8
259.802
259.805
259.808
259.813
259.819
259.826
259.836
259.849
259.866
259.889
259.926
259.985
259.648
259.688
259.71
259.725
259.736
259.744
259.75
259.754
259.758
259.761
259.763
259.765
259.767
259.768
259.768
259.769
259.77
259.77
259.77
259.77
259.77
259.77
259.77
259.77
259.77
259.77
259.771
259.771
259.771
259.771
259.771
259.771
259.771
259.772
259.772
259.773
259.774
259.776
259.778
259.781
259.784
259.789
259.794
259.802
259.811
259.823
259.839
259.863
259.898
259.957
259.627
259.667
259.689
259.704
259.714
259.721
259.727
259.732
259.735
259.738
259.74
259.742
259.744
259.745
259.745
259.746
259.746
259.747
259.747
259.747
259.747
259.747
259.747
259.747
259.747
259.747
259.747
259.747
259.747
259.747
259.748
259.748
259.748
259.748
259.749
259.75
259.751
259.752
259.754
259.757
259.76
259.765
259.77
259.777
259.786
259.798
259.814
259.836
259.871
259.929
259.607
259.646
259.668
259.682
259.692
259.699
259.705
259.709
259.713
259.716
259.718
259.719
259.721
259.722
259.722
259.723
259.723
259.724
259.724
259.724
259.724
259.724
259.724
259.724
259.724
259.724
259.724
259.724
259.724
259.724
259.725
259.725
259.725
259.725
259.726
259.727
259.728
259.729
259.731
259.734
259.737
259.741
259.746
259.753
259.762
259.773
259.788
259.81
259.844
259.902
259.587
259.626
259.647
259.661
259.67
259.677
259.683
259.687
259.69
259.693
259.695
259.697
259.698
259.699
259.7
259.7
259.701
259.701
259.701
259.701
259.701
259.701
259.701
259.701
259.701
259.701
259.702
259.702
259.702
259.702
259.702
259.702
259.702
259.703
259.703
259.704
259.705
259.706
259.708
259.711
259.714
259.718
259.723
259.729
259.737
259.748
259.763
259.784
259.817
259.874
259.567
259.606
259.627
259.64
259.649
259.656
259.661
259.665
259.668
259.671
259.673
259.674
259.676
259.676
259.677
259.678
259.678
259.678
259.679
259.679
259.679
259.679
259.679
259.679
259.679
259.679
259.679
259.679
259.679
259.679
259.679
259.679
259.68
259.68
259.68
259.681
259.682
259.684
259.685
259.688
259.691
259.694
259.699
259.705
259.713
259.724
259.738
259.758
259.791
259.847
259.548
259.586
259.606
259.619
259.628
259.634
259.639
259.643
259.646
259.649
259.651
259.652
259.653
259.654
259.655
259.655
259.656
259.656
259.656
259.656
259.656
259.656
259.657
259.657
259.657
259.657
259.657
259.657
259.657
259.657
259.657
259.657
259.657
259.658
259.658
259.659
259.66
259.661
259.663
259.665
259.668
259.671
259.676
259.682
259.69
259.7
259.713
259.733
259.764
259.821
259.529
259.566
259.586
259.598
259.607
259.613
259.618
259.622
259.625
259.627
259.629
259.63
259.631
259.632
259.633
259.633
259.634
259.634
259.634
259.634
259.634
259.634
259.634
259.634
259.634
259.634
259.634
259.634
259.634
259.635
259.635
259.635
259.635
259.635
259.636
259.636
259.637
259.639
259.64
259.642
259.645
259.649
259.653
259.659
259.666
259.676
259.689
259.708
259.738
259.794
259.509
259.546
259.566
259.578
259.586
259.592
259.597
259.6
259.603
259.605
259.607
259.608
259.609
259.61
259.611
259.611
259.612
259.612
259.612
259.612
259.612
259.612
259.612
259.612
259.612
259.612
259.613
259.613
259.613
259.613
259.613
259.613
259.613
259.613
259.614
259.614
259.615
259.617
259.618
259.62
259.623
259.626
259.63
259.636
259.643
259.652
259.664
259.683
259.713
259.767
259.491
259.527
259.546
259.557
259.565
259.571
259.575
259.579
259.582
259.584
259.585
259.587
259.588
259.589
259.589
259.59
259.59
259.59
259.59
259.591
259.591
259.591
259.591
259.591
259.591
259.591
259.591
259.591
259.591
259.591
259.591
259.591
259.591
259.592
259.592
259.593
259.594
259.595
259.596
259.598
259.601
259.604
259.608
259.613
259.62
259.629
259.641
259.658
259.687
259.741
259.472
259.507
259.526
259.537
259.545
259.55
259.555
259.558
259.56
259.563
259.564
259.565
259.566
259.567
259.568
259.568
259.569
259.569
259.569
259.569
259.569
259.569
259.569
259.569
259.569
259.569
259.569
259.569
259.569
259.569
259.57
259.57
259.57
259.57
259.571
259.571
259.572
259.573
259.574
259.576
259.579
259.582
259.586
259.591
259.597
259.605
259.617
259.634
259.662
259.715
259.453
259.488
259.506
259.517
259.525
259.53
259.534
259.537
259.54
259.542
259.543
259.544
259.545
259.546
259.547
259.547
259.547
259.548
259.548
259.548
259.548
259.548
259.548
259.548
259.548
259.548
259.548
259.548
259.548
259.548
259.548
259.548
259.549
259.549
259.549
259.55
259.551
259.552
259.553
259.555
259.557
259.56
259.564
259.568
259.574
259.582
259.593
259.61
259.637
259.69
259.435
259.469
259.487
259.497
259.504
259.51
259.513
259.516
259.519
259.521
259.522
259.523
259.524
259.525
259.526
259.526
259.526
259.526
259.527
259.527
259.527
259.527
259.527
259.527
259.527
259.527
259.527
259.527
259.527
259.527
259.527
259.527
259.527
259.528
259.528
259.529
259.529
259.53
259.532
259.533
259.535
259.538
259.542
259.546
259.552
259.56
259.57
259.586
259.612
259.664
259.417
259.451
259.468
259.478
259.485
259.489
259.493
259.496
259.498
259.5
259.502
259.503
259.504
259.504
259.505
259.505
259.505
259.506
259.506
259.506
259.506
259.506
259.506
259.506
259.506
259.506
259.506
259.506
259.506
259.506
259.506
259.506
259.506
259.507
259.507
259.508
259.508
259.509
259.51
259.512
259.514
259.517
259.52
259.525
259.53
259.537
259.547
259.562
259.588
259.639
259.399
259.432
259.449
259.458
259.465
259.469
259.473
259.476
259.478
259.48
259.481
259.482
259.483
259.484
259.484
259.484
259.485
259.485
259.485
259.485
259.485
259.485
259.485
259.485
259.485
259.485
259.485
259.485
259.485
259.485
259.485
259.486
259.486
259.486
259.486
259.487
259.487
259.488
259.49
259.491
259.493
259.496
259.499
259.503
259.508
259.515
259.525
259.539
259.564
259.614
259.381
259.414
259.43
259.439
259.445
259.45
259.453
259.456
259.458
259.459
259.461
259.462
259.462
259.463
259.464
259.464
259.464
259.464
259.464
259.465
259.465
259.465
259.465
259.465
259.465
259.465
259.465
259.465
259.465
259.465
259.465
259.465
259.465
259.465
259.466
259.466
259.467
259.468
259.469
259.47
259.472
259.474
259.478
259.482
259.487
259.493
259.502
259.516
259.54
259.589
259.364
259.395
259.411
259.42
259.426
259.43
259.433
259.436
259.438
259.439
259.44
259.441
259.442
259.443
259.443
259.444
259.444
259.444
259.444
259.444
259.444
259.444
259.444
259.444
259.444
259.444
259.444
259.444
259.444
259.444
259.444
259.445
259.445
259.445
259.445
259.446
259.446
259.447
259.448
259.45
259.451
259.454
259.457
259.46
259.465
259.471
259.48
259.493
259.516
259.564
259.346
259.377
259.392
259.401
259.406
259.41
259.413
259.416
259.418
259.419
259.42
259.421
259.422
259.423
259.423
259.423
259.424
259.424
259.424
259.424
259.424
259.424
259.424
259.424
259.424
259.424
259.424
259.424
259.424
259.424
259.424
259.424
259.424
259.425
259.425
259.425
259.426
259.427
259.428
259.429
259.431
259.433
259.436
259.439
259.444
259.45
259.458
259.47
259.492
259.539
259.329
259.359
259.373
259.382
259.387
259.391
259.394
259.396
259.398
259.399
259.4
259.401
259.402
259.402
259.403
259.403
259.403
259.404
259.404
259.404
259.404
259.404
259.404
259.404
259.404
259.404
259.404
259.404
259.404
259.404
259.404
259.404
259.404
259.404
259.405
259.405
259.406
259.406
259.407
259.409
259.41
259.412
259.415
259.418
259.423
259.428
259.436
259.448
259.469
259.515
259.312
259.341
259.355
259.363
259.368
259.371
259.374
259.376
259.378
259.379
259.38
259.381
259.382
259.382
259.383
259.383
259.383
259.383
259.384
259.384
259.384
259.384
259.384
259.384
259.384
259.384
259.384
259.384
259.384
259.384
259.384
259.384
259.384
259.384
259.385
259.385
259.385
259.386
259.387
259.388
259.39
259.392
259.394
259.397
259.401
259.407
259.414
259.426
259.446
259.49
259.294
259.323
259.336
259.344
259.348
259.352
259.355
259.357
259.358
259.359
259.36
259.361
259.362
259.362
259.363
259.363
259.363
259.363
259.364
259.364
259.364
259.364
259.364
259.364
259.364
259.364
259.364
259.364
259.364
259.364
259.364
259.364
259.364
259.364
259.364
259.365
259.365
259.366
259.367
259.368
259.369
259.371
259.374
259.377
259.38
259.386
259.393
259.403
259.422
259.466
259.277
259.305
259.317
259.325
259.329
259.333
259.335
259.337
259.338
259.34
259.341
259.341
259.342
259.342
259.343
259.343
259.343
259.343
259.343
259.344
259.344
259.344
259.344
259.344
259.344
259.344
259.344
259.344
259.344
259.344
259.344
259.344
259.344
259.344
259.344
259.345
259.345
259.346
259.347
259.348
259.349
259.351
259.353
259.356
259.36
259.364
259.371
259.381
259.399
259.442
259.26
259.287
259.299
259.306
259.31
259.313
259.315
259.317
259.319
259.32
259.321
259.321
259.322
259.322
259.323
259.323
259.323
259.323
259.323
259.324
259.324
259.324
259.324
259.324
259.324
259.324
259.324
259.324
259.324
259.324
259.324
259.324
259.324
259.324
259.324
259.325
259.325
259.326
259.326
259.327
259.329
259.33
259.332
259.335
259.339
259.343
259.349
259.359
259.376
259.417
259.242
259.268
259.28
259.287
259.291
259.294
259.296
259.298
259.299
259.3
259.301
259.302
259.302
259.302
259.303
259.303
259.303
259.303
259.303
259.303
259.304
259.304
259.304
259.304
259.304
259.304
259.304
259.304
259.304
259.304
259.304
259.304
259.304
259.304
259.304
259.305
259.305
259.305
259.306
259.307
259.308
259.31
259.312
259.314
259.318
259.322
259.328
259.337
259.353
259.393
259.225
259.25
259.261
259.267
259.271
259.274
259.276
259.278
259.279
259.28
259.281
259.281
259.282
259.282
259.283
259.283
259.283
259.283
259.283
259.283
259.283
259.283
259.283
259.283
259.283
259.283
259.283
259.283
259.283
259.283
259.284
259.284
259.284
259.284
259.284
259.284
259.285
259.285
259.286
259.287
259.288
259.289
259.291
259.294
259.297
259.301
259.306
259.315
259.33
259.369
259.207
259.232
259.242
259.248
259.252
259.254
259.256
259.258
259.259
259.26
259.261
259.261
259.262
259.262
259.262
259.263
259.263
259.263
259.263
259.263
259.263
259.263
259.263
259.263
259.263
259.263
259.263
259.263
259.263
259.263
259.263
259.263
259.263
259.263
259.264
259.264
259.264
259.265
259.265
259.266
259.267
259.269
259.27
259.273
259.276
259.279
259.285
259.292
259.307
259.344
259.19
259.213
259.223
259.228
259.232
259.234
259.236
259.238
259.239
259.24
259.24
259.241
259.241
259.242
259.242
259.242
259.242
259.242
259.242
259.243
259.243
259.243
259.243
259.243
259.243
259.243
259.243
259.243
259.243
259.243
259.243
259.243
259.243
259.243
259.243
259.243
259.244
259.244
259.245
259.246
259.247
259.248
259.249
259.252
259.254
259.258
259.263
259.27
259.284
259.32
259.172
259.194
259.203
259.209
259.212
259.214
259.216
259.217
259.218
259.219
259.22
259.22
259.221
259.221
259.221
259.221
259.222
259.222
259.222
259.222
259.222
259.222
259.222
259.222
259.222
259.222
259.222
259.222
259.222
259.222
259.222
259.222
259.222
259.222
259.222
259.223
259.223
259.223
259.224
259.225
259.226
259.227
259.228
259.23
259.233
259.236
259.241
259.248
259.261
259.295
259.153
259.175
259.184
259.189
259.192
259.194
259.195
259.197
259.198
259.198
259.199
259.199
259.2
259.2
259.2
259.201
259.201
259.201
259.201
259.201
259.201
259.201
259.201
259.201
259.201
259.201
259.201
259.201
259.201
259.201
259.201
259.201
259.201
259.201
259.201
259.202
259.202
259.202
259.203
259.204
259.204
259.206
259.207
259.209
259.211
259.214
259.218
259.225
259.237
259.27
259.135
259.155
259.164
259.168
259.171
259.173
259.174
259.176
259.176
259.177
259.178
259.178
259.179
259.179
259.179
259.179
259.179
259.179
259.18
259.18
259.18
259.18
259.18
259.18
259.18
259.18
259.18
259.18
259.18
259.18
259.18
259.18
259.18
259.18
259.18
259.18
259.181
259.181
259.181
259.182
259.183
259.184
259.185
259.187
259.189
259.192
259.196
259.202
259.213
259.244
259.116
259.135
259.143
259.147
259.15
259.152
259.153
259.154
259.155
259.156
259.156
259.157
259.157
259.157
259.157
259.158
259.158
259.158
259.158
259.158
259.158
259.158
259.158
259.158
259.158
259.158
259.158
259.158
259.158
259.158
259.158
259.158
259.158
259.158
259.158
259.159
259.159
259.159
259.16
259.16
259.161
259.162
259.163
259.165
259.167
259.169
259.173
259.179
259.189
259.219
259.096
259.114
259.122
259.126
259.128
259.13
259.131
259.132
259.133
259.134
259.134
259.135
259.135
259.135
259.135
259.135
259.136
259.136
259.136
259.136
259.136
259.136
259.136
259.136
259.136
259.136
259.136
259.136
259.136
259.136
259.136
259.136
259.136
259.136
259.136
259.136
259.137
259.137
259.137
259.138
259.139
259.139
259.141
259.142
259.144
259.146
259.15
259.155
259.165
259.193
259.076
259.093
259.1
259.104
259.106
259.108
259.109
259.11
259.111
259.111
259.112
259.112
259.112
259.113
259.113
259.113
259.113
259.113
259.113
259.113
259.113
259.113
259.113
259.113
259.113
259.113
259.113
259.113
259.113
259.113
259.113
259.113
259.113
259.113
259.114
259.114
259.114
259.114
259.115
259.115
259.116
259.117
259.118
259.119
259.121
259.123
259.126
259.131
259.14
259.166
259.056
259.072
259.078
259.082
259.084
259.085
259.086
259.087
259.088
259.088
259.089
259.089
259.089
259.089
259.09
259.09
259.09
259.09
259.09
259.09
259.09
259.09
259.09
259.09
259.09
259.09
259.09
259.09
259.09
259.09
259.09
259.09
259.09
259.09
259.09
259.09
259.091
259.091
259.091
259.092
259.092
259.093
259.094
259.095
259.097
259.099
259.102
259.106
259.114
259.139
259.034
259.049
259.055
259.058
259.06
259.062
259.063
259.063
259.064
259.065
259.065
259.065
259.065
259.066
259.066
259.066
259.066
259.066
259.066
259.066
259.066
259.066
259.066
259.066
259.066
259.066
259.066
259.066
259.066
259.066
259.066
259.066
259.066
259.066
259.066
259.067
259.067
259.067
259.067
259.068
259.068
259.069
259.07
259.071
259.072
259.074
259.077
259.081
259.088
259.111
259.013
259.026
259.032
259.035
259.036
259.038
259.038
259.039
259.04
259.04
259.041
259.041
259.041
259.041
259.041
259.041
259.042
259.042
259.042
259.042
259.042
259.042
259.042
259.042
259.042
259.042
259.042
259.042
259.042
259.042
259.042
259.042
259.042
259.042
259.042
259.042
259.042
259.042
259.043
259.043
259.044
259.044
259.045
259.046
259.047
259.049
259.051
259.055
259.062
259.083
258.99
259.003
259.008
259.01
259.012
259.013
259.014
259.014
259.015
259.015
259.015
259.016
259.016
259.016
259.016
259.016
259.016
259.016
259.016
259.016
259.016
259.016
259.016
259.016
259.016
259.016
259.016
259.016
259.017
259.017
259.017
259.017
259.017
259.017
259.017
259.017
259.017
259.017