/*--------------------------------*- C++ -*----------------------------------*\
| =========                 |                                                 |
| \\      /  F ield         | OpenFOAM: The Open Source CFD Toolbox           |
|  \\    /   O peration     | Version:  v1912                                 |
|   \\  /    A nd           | Website:  www.openfoam.com                      |
|    \\/     M anipulation  |                                                 |
\*---------------------------------------------------------------------------*/
FoamFile
{
    version     2.0;
    format      ascii;
    class       volScalarField;
    location    "31536000";
    object      T;
}
// * * * * * * * * * * * * * * * * * * * * * * * * * * * * * * * * * * * * * //

dimensions      [0 0 0 1 0 0 0];


internalField   nonuniform List<scalar> 
4250
(
260.35
260.385
260.419
260.446
260.468
260.486
260.5
260.511
260.519
260.527
260.533
260.539
260.544
260.55
260.556
260.562
260.57
260.578
260.586
260.595
260.603
260.61
260.614
260.615
260.612
260.602
260.587
260.57
260.555
260.542
260.529
260.517
260.506
260.494
260.484
260.474
260.466
260.46
260.456
260.454
260.454
260.457
260.463
260.472
260.484
260.502
260.524
260.55
260.578
260.599
260.347
260.382
260.416
260.443
260.466
260.483
260.497
260.508
260.517
260.524
260.53
260.536
260.541
260.547
260.553
260.56
260.567
260.575
260.584
260.592
260.6
260.607
260.611
260.612
260.609
260.6
260.585
260.568
260.554
260.54
260.528
260.516
260.504
260.493
260.482
260.473
260.465
260.459
260.454
260.452
260.453
260.455
260.461
260.47
260.482
260.5
260.522
260.548
260.575
260.597
260.341
260.376
260.41
260.438
260.46
260.478
260.492
260.503
260.511
260.519
260.525
260.531
260.536
260.542
260.548
260.554
260.561
260.569
260.578
260.587
260.595
260.601
260.605
260.607
260.604
260.595
260.581
260.564
260.55
260.537
260.524
260.512
260.5
260.489
260.479
260.469
260.462
260.455
260.451
260.449
260.449
260.452
260.458
260.466
260.479
260.496
260.518
260.544
260.572
260.594
260.333
260.369
260.402
260.43
260.453
260.47
260.484
260.495
260.504
260.511
260.517
260.523
260.529
260.534
260.54
260.546
260.554
260.562
260.57
260.579
260.587
260.593
260.597
260.599
260.596
260.587
260.575
260.558
260.544
260.531
260.519
260.507
260.495
260.484
260.474
260.465
260.457
260.451
260.446
260.444
260.445
260.447
260.453
260.461
260.474
260.491
260.513
260.539
260.567
260.59
260.323
260.359
260.393
260.421
260.443
260.461
260.474
260.485
260.494
260.501
260.508
260.513
260.519
260.524
260.53
260.536
260.544
260.551
260.56
260.568
260.576
260.583
260.587
260.588
260.586
260.578
260.567
260.551
260.537
260.524
260.512
260.5
260.488
260.478
260.467
260.458
260.451
260.444
260.44
260.438
260.438
260.441
260.447
260.455
260.468
260.484
260.506
260.532
260.561
260.585
260.312
260.348
260.381
260.409
260.431
260.449
260.463
260.474
260.482
260.49
260.496
260.501
260.507
260.512
260.518
260.524
260.531
260.539
260.548
260.556
260.564
260.57
260.574
260.576
260.574
260.568
260.557
260.542
260.528
260.515
260.503
260.491
260.48
260.469
260.459
260.451
260.443
260.437
260.433
260.431
260.431
260.434
260.439
260.448
260.46
260.476
260.498
260.524
260.553
260.578
260.3
260.335
260.369
260.396
260.418
260.436
260.449
260.46
260.469
260.476
260.482
260.488
260.493
260.498
260.504
260.51
260.517
260.525
260.533
260.542
260.549
260.556
260.56
260.563
260.561
260.555
260.546
260.531
260.517
260.505
260.493
260.482
260.471
260.46
260.45
260.441
260.434
260.428
260.424
260.422
260.422
260.425
260.43
260.439
260.451
260.467
260.489
260.515
260.544
260.57
260.286
260.322
260.355
260.382
260.404
260.421
260.435
260.445
260.454
260.461
260.467
260.473
260.478
260.483
260.489
260.495
260.502
260.509
260.518
260.526
260.534
260.54
260.545
260.547
260.547
260.542
260.533
260.519
260.505
260.493
260.482
260.471
260.46
260.449
260.44
260.431
260.424
260.418
260.414
260.412
260.413
260.415
260.421
260.429
260.441
260.457
260.479
260.505
260.534
260.561
260.271
260.307
260.34
260.367
260.388
260.405
260.419
260.429
260.438
260.445
260.451
260.456
260.461
260.467
260.472
260.478
260.485
260.493
260.501
260.509
260.517
260.523
260.528
260.531
260.531
260.526
260.518
260.505
260.492
260.48
260.469
260.458
260.448
260.438
260.428
260.42
260.413
260.407
260.403
260.402
260.402
260.405
260.41
260.418
260.43
260.446
260.468
260.494
260.524
260.551
260.255
260.292
260.324
260.35
260.372
260.388
260.402
260.412
260.421
260.427
260.433
260.439
260.444
260.449
260.454
260.46
260.467
260.474
260.482
260.491
260.498
260.505
260.51
260.513
260.514
260.51
260.503
260.49
260.478
260.466
260.455
260.445
260.435
260.425
260.416
260.407
260.401
260.395
260.392
260.39
260.39
260.393
260.398
260.406
260.418
260.434
260.455
260.482
260.512
260.541
260.238
260.275
260.307
260.333
260.354
260.371
260.384
260.394
260.402
260.409
260.415
260.42
260.425
260.43
260.436
260.442
260.448
260.455
260.463
260.471
260.479
260.486
260.491
260.495
260.495
260.492
260.486
260.474
260.462
260.451
260.441
260.43
260.42
260.411
260.402
260.394
260.387
260.382
260.379
260.377
260.378
260.38
260.385
260.394
260.405
260.421
260.442
260.469
260.499
260.529
260.221
260.258
260.29
260.315
260.336
260.352
260.365
260.375
260.383
260.39
260.396
260.401
260.406
260.411
260.416
260.422
260.428
260.436
260.443
260.451
260.459
260.466
260.472
260.475
260.476
260.474
260.468
260.457
260.446
260.435
260.425
260.415
260.405
260.396
260.388
260.38
260.373
260.368
260.365
260.364
260.364
260.367
260.372
260.38
260.391
260.407
260.428
260.455
260.485
260.516
260.202
260.24
260.271
260.297
260.317
260.333
260.346
260.356
260.364
260.37
260.376
260.381
260.386
260.391
260.396
260.402
260.408
260.415
260.423
260.43
260.438
260.445
260.451
260.455
260.456
260.454
260.449
260.439
260.429
260.418
260.408
260.399
260.389
260.38
260.372
260.365
260.359
260.354
260.351
260.349
260.35
260.353
260.358
260.366
260.377
260.392
260.413
260.44
260.471
260.503
260.183
260.221
260.253
260.278
260.298
260.313
260.326
260.335
260.343
260.35
260.355
260.36
260.365
260.37
260.375
260.38
260.387
260.394
260.401
260.409
260.417
260.424
260.429
260.433
260.435
260.434
260.43
260.421
260.41
260.4
260.391
260.382
260.373
260.364
260.356
260.349
260.343
260.339
260.336
260.334
260.335
260.338
260.343
260.351
260.362
260.377
260.398
260.424
260.455
260.489
260.164
260.202
260.233
260.258
260.277
260.293
260.305
260.315
260.322
260.329
260.334
260.339
260.344
260.348
260.353
260.359
260.365
260.372
260.379
260.387
260.394
260.401
260.407
260.412
260.414
260.413
260.409
260.401
260.391
260.382
260.373
260.364
260.355
260.347
260.339
260.333
260.327
260.323
260.32
260.319
260.319
260.322
260.327
260.335
260.346
260.361
260.381
260.408
260.439
260.474
260.144
260.182
260.213
260.238
260.257
260.272
260.284
260.293
260.301
260.307
260.312
260.317
260.322
260.326
260.331
260.337
260.343
260.349
260.356
260.364
260.371
260.378
260.385
260.389
260.391
260.391
260.388
260.381
260.372
260.362
260.354
260.345
260.337
260.329
260.322
260.315
260.31
260.306
260.303
260.302
260.303
260.306
260.311
260.318
260.329
260.344
260.364
260.391
260.423
260.458
260.123
260.162
260.193
260.217
260.236
260.25
260.262
260.271
260.279
260.285
260.29
260.295
260.299
260.304
260.309
260.314
260.32
260.326
260.333
260.341
260.348
260.355
260.361
260.366
260.369
260.369
260.366
260.36
260.351
260.343
260.334
260.326
260.318
260.311
260.304
260.298
260.293
260.289
260.286
260.286
260.286
260.289
260.294
260.301
260.312
260.327
260.347
260.373
260.405
260.441
260.102
260.142
260.172
260.196
260.214
260.229
260.24
260.249
260.256
260.262
260.268
260.272
260.277
260.281
260.286
260.291
260.296
260.303
260.31
260.317
260.324
260.331
260.337
260.342
260.345
260.346
260.344
260.338
260.33
260.322
260.314
260.306
260.299
260.292
260.285
260.279
260.275
260.271
260.269
260.268
260.269
260.272
260.277
260.284
260.294
260.309
260.329
260.355
260.387
260.424
260.081
260.121
260.151
260.174
260.192
260.206
260.218
260.226
260.234
260.24
260.245
260.249
260.253
260.258
260.262
260.267
260.273
260.279
260.286
260.293
260.3
260.307
260.313
260.318
260.321
260.322
260.321
260.316
260.309
260.301
260.293
260.286
260.279
260.272
260.266
260.261
260.256
260.253
260.251
260.25
260.251
260.254
260.259
260.266
260.276
260.291
260.31
260.336
260.369
260.407
260.06
260.1
260.129
260.152
260.17
260.184
260.195
260.204
260.211
260.216
260.221
260.226
260.23
260.234
260.238
260.243
260.249
260.255
260.261
260.268
260.276
260.283
260.289
260.294
260.297
260.298
260.297
260.293
260.287
260.279
260.272
260.265
260.259
260.252
260.247
260.241
260.237
260.234
260.232
260.232
260.233
260.236
260.24
260.248
260.258
260.272
260.291
260.317
260.35
260.389
260.038
260.078
260.108
260.13
260.148
260.161
260.172
260.18
260.187
260.193
260.198
260.202
260.206
260.21
260.214
260.219
260.224
260.23
260.237
260.244
260.251
260.258
260.264
260.269
260.272
260.274
260.274
260.27
260.264
260.258
260.251
260.244
260.238
260.232
260.227
260.222
260.218
260.215
260.213
260.213
260.214
260.217
260.222
260.229
260.239
260.252
260.272
260.297
260.33
260.37
260.016
260.057
260.086
260.108
260.125
260.138
260.149
260.157
260.164
260.169
260.174
260.178
260.182
260.186
260.19
260.195
260.2
260.206
260.212
260.219
260.226
260.233
260.239
260.244
260.248
260.249
260.249
260.247
260.242
260.235
260.229
260.223
260.217
260.211
260.206
260.202
260.198
260.196
260.194
260.194
260.195
260.198
260.202
260.209
260.219
260.233
260.252
260.277
260.31
260.351
259.994
260.035
260.064
260.086
260.102
260.115
260.125
260.133
260.14
260.145
260.15
260.154
260.158
260.162
260.166
260.17
260.175
260.181
260.187
260.194
260.201
260.207
260.214
260.219
260.223
260.225
260.225
260.223
260.219
260.213
260.207
260.201
260.195
260.19
260.185
260.181
260.178
260.176
260.175
260.174
260.176
260.178
260.183
260.19
260.199
260.213
260.231
260.256
260.29
260.332
259.972
260.013
260.042
260.063
260.079
260.092
260.102
260.11
260.116
260.121
260.126
260.13
260.134
260.137
260.141
260.146
260.15
260.156
260.162
260.168
260.175
260.182
260.188
260.193
260.197
260.2
260.2
260.199
260.195
260.19
260.184
260.179
260.174
260.169
260.164
260.161
260.158
260.156
260.155
260.155
260.156
260.159
260.163
260.17
260.179
260.192
260.211
260.236
260.269
260.312
259.95
259.991
260.019
260.04
260.056
260.068
260.078
260.086
260.092
260.097
260.101
260.105
260.109
260.113
260.117
260.121
260.126
260.131
260.137
260.143
260.15
260.156
260.162
260.168
260.172
260.174
260.176
260.175
260.172
260.167
260.161
260.156
260.152
260.147
260.143
260.14
260.137
260.135
260.134
260.134
260.136
260.139
260.143
260.15
260.159
260.172
260.19
260.214
260.248
260.291
259.928
259.969
259.997
260.017
260.033
260.045
260.054
260.062
260.068
260.073
260.077
260.081
260.085
260.088
260.092
260.096
260.101
260.106
260.111
260.118
260.124
260.131
260.137
260.142
260.146
260.149
260.151
260.151
260.148
260.143
260.138
260.134
260.129
260.125
260.122
260.119
260.116
260.114
260.114
260.114
260.115
260.118
260.123
260.129
260.138
260.151
260.168
260.193
260.226
260.271
259.906
259.947
259.975
259.995
260.01
260.021
260.031
260.038
260.044
260.049
260.053
260.057
260.06
260.063
260.067
260.071
260.076
260.081
260.086
260.092
260.099
260.105
260.111
260.116
260.121
260.124
260.126
260.126
260.124
260.12
260.115
260.111
260.107
260.103
260.1
260.097
260.095
260.094
260.093
260.093
260.095
260.097
260.102
260.108
260.117
260.13
260.147
260.171
260.205
260.25
259.884
259.925
259.952
259.972
259.987
259.998
260.007
260.014
260.02
260.024
260.028
260.032
260.035
260.039
260.042
260.046
260.051
260.055
260.061
260.067
260.073
260.079
260.085
260.091
260.095
260.098
260.1
260.102
260.1
260.096
260.092
260.088
260.084
260.081
260.078
260.076
260.074
260.072
260.072
260.073
260.074
260.077
260.081
260.087
260.096
260.108
260.125
260.149
260.183
260.228
259.862
259.903
259.93
259.949
259.963
259.974
259.983
259.99
259.995
260
260.004
260.008
260.011
260.014
260.018
260.021
260.026
260.03
260.035
260.041
260.047
260.054
260.06
260.065
260.069
260.073
260.075
260.077
260.076
260.072
260.068
260.065
260.062
260.059
260.056
260.054
260.052
260.051
260.051
260.051
260.053
260.056
260.06
260.066
260.075
260.087
260.103
260.127
260.16
260.207
259.84
259.881
259.907
259.926
259.94
259.951
259.959
259.966
259.971
259.976
259.98
259.983
259.986
259.989
259.993
259.996
260.001
260.005
260.01
260.016
260.022
260.028
260.034
260.039
260.044
260.047
260.05
260.052
260.051
260.048
260.045
260.042
260.039
260.036
260.034
260.032
260.03
260.03
260.03
260.03
260.032
260.034
260.039
260.045
260.053
260.065
260.081
260.104
260.138
260.185
259.818
259.859
259.885
259.903
259.917
259.927
259.936
259.942
259.947
259.952
259.955
259.959
259.962
259.965
259.968
259.972
259.976
259.98
259.985
259.99
259.996
260.002
260.008
260.014
260.018
260.022
260.025
260.027
260.027
260.024
260.021
260.018
260.016
260.013
260.011
260.01
260.009
260.008
260.008
260.009
260.01
260.013
260.017
260.023
260.032
260.043
260.059
260.082
260.115
260.163
259.796
259.837
259.863
259.881
259.894
259.904
259.912
259.918
259.923
259.928
259.931
259.934
259.937
259.94
259.944
259.947
259.951
259.955
259.96
259.965
259.971
259.977
259.983
259.988
259.992
259.996
260
260.003
260.003
260
259.998
259.995
259.993
259.991
259.989
259.988
259.987
259.986
259.987
259.987
259.989
259.991
259.996
260.001
260.01
260.021
260.037
260.059
260.092
260.14
259.774
259.815
259.841
259.858
259.871
259.881
259.889
259.895
259.9
259.904
259.907
259.91
259.913
259.916
259.919
259.922
259.926
259.93
259.935
259.94
259.946
259.951
259.957
259.962
259.967
259.971
259.975
259.978
259.978
259.976
259.974
259.972
259.97
259.968
259.967
259.965
259.965
259.965
259.965
259.966
259.967
259.97
259.974
259.98
259.988
259.999
260.014
260.036
260.07
260.118
259.753
259.794
259.819
259.836
259.848
259.858
259.865
259.871
259.876
259.88
259.883
259.886
259.889
259.892
259.895
259.898
259.902
259.906
259.91
259.915
259.921
259.926
259.932
259.937
259.942
259.946
259.95
259.953
259.954
259.952
259.95
259.948
259.947
259.945
259.944
259.943
259.943
259.943
259.943
259.944
259.946
259.948
259.952
259.958
259.966
259.977
259.992
260.013
260.046
260.095
259.732
259.772
259.797
259.813
259.826
259.835
259.842
259.848
259.852
259.856
259.859
259.862
259.865
259.868
259.871
259.874
259.877
259.881
259.885
259.89
259.896
259.901
259.907
259.912
259.916
259.92
259.925
259.929
259.93
259.929
259.927
259.925
259.923
259.922
259.921
259.921
259.921
259.921
259.921
259.922
259.924
259.926
259.93
259.936
259.944
259.955
259.969
259.991
260.023
260.073
259.711
259.751
259.775
259.791
259.803
259.812
259.819
259.824
259.829
259.833
259.836
259.839
259.841
259.844
259.847
259.85
259.853
259.857
259.861
259.866
259.871
259.876
259.882
259.887
259.891
259.895
259.9
259.904
259.905
259.905
259.903
259.902
259.9
259.9
259.899
259.899
259.899
259.899
259.899
259.9
259.902
259.905
259.908
259.914
259.922
259.932
259.946
259.968
260
260.05
259.69
259.73
259.753
259.769
259.781
259.789
259.796
259.801
259.806
259.809
259.812
259.815
259.818
259.82
259.823
259.826
259.829
259.833
259.837
259.841
259.846
259.851
259.857
259.862
259.866
259.871
259.875
259.88
259.881
259.881
259.88
259.878
259.877
259.877
259.876
259.876
259.876
259.877
259.877
259.878
259.88
259.883
259.887
259.892
259.9
259.91
259.924
259.944
259.977
260.027
259.669
259.709
259.732
259.747
259.758
259.767
259.773
259.778
259.783
259.786
259.789
259.792
259.794
259.797
259.799
259.802
259.805
259.809
259.812
259.817
259.822
259.827
259.832
259.837
259.842
259.846
259.851
259.855
259.857
259.857
259.856
259.855
259.854
259.854
259.854
259.854
259.854
259.855
259.855
259.857
259.858
259.861
259.865
259.87
259.877
259.888
259.901
259.921
259.953
260.004
259.648
259.688
259.711
259.726
259.736
259.744
259.751
259.756
259.76
259.763
259.766
259.768
259.771
259.773
259.776
259.778
259.781
259.785
259.789
259.793
259.797
259.803
259.808
259.813
259.817
259.821
259.826
259.831
259.834
259.834
259.833
259.832
259.831
259.831
259.831
259.832
259.832
259.833
259.834
259.835
259.836
259.839
259.843
259.848
259.855
259.865
259.879
259.898
259.93
259.981
259.628
259.667
259.69
259.704
259.714
259.722
259.728
259.733
259.737
259.74
259.743
259.745
259.748
259.75
259.752
259.755
259.758
259.761
259.765
259.769
259.773
259.778
259.784
259.788
259.793
259.797
259.802
259.807
259.81
259.81
259.809
259.809
259.809
259.809
259.809
259.809
259.81
259.811
259.812
259.813
259.815
259.817
259.821
259.826
259.833
259.843
259.856
259.875
259.907
259.958
259.608
259.647
259.669
259.683
259.693
259.7
259.706
259.711
259.714
259.718
259.72
259.723
259.725
259.727
259.729
259.732
259.735
259.738
259.741
259.745
259.75
259.755
259.76
259.764
259.769
259.773
259.778
259.783
259.786
259.787
259.786
259.786
259.786
259.786
259.787
259.787
259.788
259.789
259.79
259.791
259.793
259.795
259.799
259.804
259.811
259.821
259.833
259.852
259.883
259.934
259.588
259.627
259.648
259.662
259.671
259.679
259.684
259.689
259.692
259.695
259.698
259.7
259.702
259.704
259.707
259.709
259.712
259.715
259.718
259.722
259.726
259.731
259.736
259.741
259.745
259.749
259.754
259.76
259.763
259.764
259.763
259.763
259.763
259.764
259.764
259.765
259.766
259.767
259.768
259.769
259.771
259.774
259.777
259.782
259.789
259.798
259.811
259.829
259.86
259.911
259.569
259.607
259.628
259.641
259.65
259.657
259.662
259.667
259.67
259.673
259.676
259.678
259.68
259.682
259.684
259.686
259.689
259.692
259.695
259.699
259.703
259.708
259.712
259.717
259.721
259.726
259.731
259.736
259.74
259.74
259.74
259.74
259.741
259.741
259.742
259.743
259.744
259.745
259.746
259.748
259.75
259.752
259.756
259.76
259.767
259.776
259.788
259.807
259.837
259.888
259.549
259.587
259.607
259.62
259.629
259.636
259.641
259.645
259.648
259.651
259.654
259.656
259.658
259.66
259.662
259.664
259.666
259.669
259.672
259.676
259.68
259.684
259.689
259.694
259.698
259.702
259.707
259.713
259.717
259.718
259.718
259.718
259.718
259.719
259.72
259.721
259.722
259.724
259.725
259.726
259.728
259.73
259.734
259.739
259.745
259.754
259.766
259.784
259.814
259.865
259.53
259.567
259.587
259.6
259.608
259.615
259.62
259.624
259.627
259.63
259.632
259.634
259.636
259.638
259.64
259.642
259.644
259.647
259.65
259.653
259.657
259.662
259.666
259.671
259.675
259.679
259.684
259.69
259.694
259.695
259.695
259.695
259.696
259.697
259.698
259.699
259.701
259.702
259.703
259.705
259.706
259.709
259.712
259.717
259.723
259.732
259.744
259.761
259.79
259.842
259.512
259.548
259.568
259.58
259.588
259.594
259.599
259.603
259.606
259.608
259.61
259.612
259.614
259.616
259.618
259.62
259.622
259.625
259.628
259.631
259.635
259.639
259.643
259.648
259.652
259.656
259.661
259.667
259.671
259.673
259.673
259.673
259.674
259.675
259.676
259.678
259.679
259.68
259.682
259.683
259.685
259.688
259.691
259.695
259.702
259.71
259.721
259.738
259.767
259.818
259.493
259.529
259.548
259.56
259.568
259.573
259.578
259.582
259.585
259.587
259.589
259.591
259.593
259.595
259.596
259.598
259.601
259.603
259.606
259.609
259.613
259.617
259.621
259.625
259.629
259.634
259.639
259.645
259.649
259.65
259.651
259.651
259.652
259.653
259.655
259.656
259.658
259.659
259.66
259.662
259.664
259.666
259.67
259.674
259.68
259.688
259.699
259.716
259.744
259.795
259.475
259.51
259.529
259.54
259.547
259.553
259.558
259.561
259.564
259.566
259.568
259.57
259.572
259.573
259.575
259.577
259.579
259.582
259.584
259.587
259.591
259.595
259.599
259.603
259.607
259.611
259.617
259.622
259.626
259.628
259.629
259.629
259.63
259.631
259.633
259.635
259.636
259.638
259.639
259.641
259.643
259.645
259.648
259.653
259.659
259.667
259.677
259.694
259.722
259.772
259.457
259.492
259.51
259.52
259.528
259.533
259.537
259.541
259.543
259.546
259.548
259.549
259.551
259.553
259.554
259.556
259.558
259.56
259.563
259.566
259.569
259.573
259.577
259.581
259.585
259.589
259.594
259.6
259.605
259.606
259.607
259.608
259.609
259.61
259.612
259.613
259.615
259.617
259.618
259.62
259.622
259.624
259.627
259.632
259.637
259.645
259.656
259.671
259.699
259.749
259.439
259.473
259.491
259.501
259.508
259.513
259.517
259.521
259.523
259.525
259.527
259.529
259.53
259.532
259.534
259.535
259.537
259.539
259.542
259.545
259.548
259.552
259.555
259.559
259.563
259.567
259.573
259.579
259.583
259.585
259.586
259.586
259.587
259.589
259.59
259.592
259.594
259.596
259.597
259.599
259.601
259.603
259.606
259.61
259.616
259.624
259.634
259.649
259.676
259.726
259.422
259.455
259.472
259.482
259.489
259.494
259.498
259.501
259.503
259.505
259.507
259.509
259.51
259.512
259.513
259.515
259.517
259.519
259.521
259.524
259.527
259.53
259.534
259.538
259.542
259.546
259.551
259.557
259.561
259.563
259.564
259.565
259.566
259.568
259.569
259.571
259.573
259.575
259.576
259.578
259.58
259.582
259.585
259.59
259.595
259.602
259.612
259.627
259.654
259.703
259.405
259.437
259.454
259.463
259.47
259.475
259.478
259.481
259.484
259.486
259.487
259.489
259.49
259.492
259.493
259.495
259.496
259.498
259.501
259.503
259.506
259.51
259.513
259.517
259.521
259.525
259.53
259.536
259.54
259.542
259.543
259.544
259.545
259.547
259.549
259.55
259.552
259.554
259.556
259.557
259.559
259.562
259.565
259.569
259.574
259.581
259.591
259.605
259.631
259.681
259.388
259.42
259.436
259.445
259.451
259.456
259.459
259.462
259.464
259.466
259.468
259.469
259.471
259.472
259.473
259.475
259.476
259.478
259.48
259.483
259.486
259.489
259.493
259.496
259.5
259.504
259.509
259.515
259.519
259.521
259.522
259.523
259.525
259.526
259.528
259.53
259.532
259.534
259.535
259.537
259.539
259.541
259.544
259.548
259.553
259.56
259.57
259.584
259.609
259.658
259.371
259.403
259.418
259.427
259.433
259.437
259.44
259.443
259.445
259.447
259.448
259.45
259.451
259.452
259.454
259.455
259.457
259.459
259.461
259.463
259.466
259.469
259.472
259.476
259.479
259.483
259.488
259.494
259.498
259.501
259.502
259.503
259.504
259.506
259.508
259.509
259.511
259.513
259.515
259.517
259.519
259.521
259.524
259.528
259.533
259.539
259.548
259.562
259.587
259.635
259.355
259.386
259.4
259.409
259.414
259.419
259.422
259.424
259.426
259.428
259.43
259.431
259.432
259.433
259.435
259.436
259.437
259.439
259.441
259.443
259.446
259.449
259.452
259.456
259.459
259.463
259.468
259.474
259.478
259.48
259.482
259.483
259.484
259.485
259.487
259.489
259.491
259.493
259.495
259.497
259.499
259.501
259.504
259.507
259.512
259.519
259.528
259.541
259.565
259.613
259.339
259.369
259.383
259.391
259.397
259.4
259.403
259.406
259.408
259.409
259.411
259.412
259.413
259.414
259.416
259.417
259.418
259.42
259.422
259.424
259.427
259.429
259.433
259.436
259.439
259.443
259.448
259.453
259.458
259.46
259.461
259.462
259.464
259.465
259.467
259.469
259.471
259.473
259.475
259.477
259.479
259.481
259.484
259.487
259.492
259.498
259.507
259.52
259.543
259.591
259.323
259.352
259.366
259.374
259.379
259.383
259.385
259.388
259.39
259.391
259.392
259.394
259.395
259.396
259.397
259.398
259.4
259.401
259.403
259.405
259.407
259.41
259.413
259.416
259.42
259.423
259.428
259.434
259.438
259.44
259.442
259.443
259.444
259.446
259.447
259.449
259.451
259.453
259.455
259.457
259.459
259.461
259.464
259.467
259.472
259.478
259.486
259.499
259.522
259.568
259.308
259.336
259.349
259.357
259.362
259.365
259.368
259.37
259.372
259.373
259.374
259.376
259.377
259.378
259.379
259.38
259.381
259.383
259.384
259.386
259.389
259.391
259.394
259.397
259.4
259.404
259.408
259.414
259.418
259.421
259.422
259.423
259.424
259.426
259.428
259.43
259.432
259.434
259.436
259.437
259.439
259.441
259.444
259.448
259.452
259.458
259.466
259.478
259.501
259.546
259.293
259.32
259.333
259.34
259.344
259.348
259.35
259.352
259.354
259.355
259.357
259.358
259.359
259.36
259.361
259.362
259.363
259.364
259.366
259.368
259.37
259.373
259.375
259.378
259.381
259.385
259.389
259.395
259.399
259.401
259.403
259.404
259.405
259.407
259.409
259.411
259.412
259.414
259.416
259.418
259.42
259.422
259.425
259.428
259.432
259.438
259.446
259.457
259.479
259.524
259.278
259.304
259.317
259.323
259.328
259.331
259.333
259.335
259.337
259.338
259.339
259.34
259.341
259.342
259.343
259.344
259.345
259.347
259.348
259.35
259.352
259.354
259.357
259.36
259.363
259.366
259.37
259.375
259.38
259.382
259.384
259.385
259.386
259.388
259.389
259.391
259.393
259.395
259.397
259.399
259.401
259.403
259.405
259.409
259.413
259.418
259.425
259.437
259.458
259.503
259.263
259.289
259.301
259.307
259.311
259.314
259.316
259.318
259.32
259.321
259.322
259.323
259.324
259.325
259.326
259.327
259.328
259.329
259.33
259.332
259.334
259.336
259.339
259.341
259.344
259.347
259.352
259.357
259.361
259.363
259.365
259.366
259.367
259.369
259.37
259.372
259.374
259.376
259.378
259.38
259.382
259.384
259.386
259.389
259.393
259.399
259.406
259.417
259.438
259.481
259.249
259.274
259.285
259.291
259.295
259.298
259.3
259.301
259.303
259.304
259.305
259.306
259.307
259.308
259.308
259.309
259.31
259.312
259.313
259.314
259.316
259.318
259.321
259.323
259.326
259.329
259.333
259.338
259.342
259.345
259.346
259.347
259.348
259.35
259.352
259.354
259.355
259.357
259.359
259.361
259.363
259.365
259.367
259.37
259.374
259.379
259.386
259.396
259.417
259.459
259.235
259.259
259.269
259.275
259.279
259.281
259.283
259.285
259.286
259.287
259.288
259.289
259.29
259.291
259.292
259.292
259.293
259.294
259.296
259.297
259.299
259.301
259.303
259.306
259.308
259.311
259.315
259.32
259.324
259.326
259.328
259.329
259.33
259.332
259.333
259.335
259.337
259.339
259.34
259.342
259.344
259.346
259.348
259.351
259.355
259.36
259.366
259.376
259.396
259.438
259.221
259.244
259.254
259.259
259.263
259.265
259.267
259.269
259.27
259.271
259.272
259.273
259.273
259.274
259.275
259.276
259.277
259.278
259.279
259.28
259.282
259.284
259.286
259.288
259.291
259.294
259.297
259.302
259.306
259.308
259.309
259.311
259.312
259.313
259.315
259.317
259.318
259.32
259.322
259.324
259.325
259.327
259.33
259.333
259.336
259.341
259.347
259.357
259.376
259.416
259.208
259.229
259.239
259.244
259.247
259.249
259.251
259.253
259.254
259.255
259.256
259.256
259.257
259.258
259.258
259.259
259.26
259.261
259.262
259.263
259.265
259.267
259.269
259.271
259.273
259.276
259.28
259.284
259.288
259.29
259.291
259.292
259.294
259.295
259.297
259.298
259.3
259.302
259.303
259.305
259.307
259.309
259.311
259.314
259.317
259.322
259.328
259.337
259.356
259.395
259.194
259.215
259.224
259.229
259.232
259.234
259.235
259.237
259.238
259.239
259.24
259.24
259.241
259.242
259.242
259.243
259.244
259.245
259.246
259.247
259.248
259.25
259.252
259.254
259.256
259.259
259.262
259.266
259.27
259.272
259.274
259.275
259.276
259.277
259.279
259.28
259.282
259.284
259.285
259.287
259.289
259.29
259.293
259.295
259.299
259.303
259.308
259.317
259.335
259.374
259.181
259.201
259.209
259.214
259.216
259.218
259.22
259.221
259.222
259.223
259.224
259.224
259.225
259.226
259.226
259.227
259.228
259.228
259.229
259.231
259.232
259.233
259.235
259.237
259.239
259.242
259.245
259.249
259.252
259.254
259.256
259.257
259.258
259.259
259.261
259.262
259.264
259.265
259.267
259.269
259.27
259.272
259.274
259.277
259.28
259.284
259.289
259.297
259.315
259.352
259.168
259.186
259.194
259.198
259.201
259.203
259.204
259.205
259.206
259.207
259.208
259.208
259.209
259.21
259.21
259.211
259.211
259.212
259.213
259.214
259.215
259.217
259.219
259.22
259.222
259.225
259.228
259.231
259.235
259.237
259.238
259.239
259.24
259.241
259.243
259.244
259.246
259.247
259.249
259.25
259.252
259.254
259.256
259.258
259.261
259.265
259.27
259.278
259.295
259.331
259.154
259.172
259.179
259.183
259.186
259.187
259.189
259.19
259.191
259.191
259.192
259.193
259.193
259.194
259.194
259.195
259.195
259.196
259.197
259.198
259.199
259.2
259.202
259.204
259.206
259.208
259.21
259.214
259.217
259.219
259.22
259.221
259.222
259.224
259.225
259.226
259.228
259.229
259.23
259.232
259.233
259.235
259.237
259.239
259.242
259.246
259.25
259.258
259.275
259.309
259.141
259.158
259.164
259.168
259.17
259.172
259.173
259.174
259.175
259.175
259.176
259.177
259.177
259.178
259.178
259.179
259.179
259.18
259.181
259.182
259.183
259.184
259.185
259.187
259.189
259.191
259.193
259.197
259.199
259.201
259.202
259.203
259.204
259.205
259.207
259.208
259.209
259.211
259.212
259.213
259.215
259.216
259.218
259.22
259.223
259.226
259.231
259.238
259.254
259.288
259.127
259.143
259.149
259.153
259.155
259.156
259.157
259.158
259.159
259.159
259.16
259.16
259.161
259.161
259.162
259.162
259.163
259.163
259.164
259.165
259.166
259.167
259.168
259.17
259.171
259.173
259.176
259.179
259.181
259.183
259.184
259.185
259.186
259.187
259.188
259.19
259.191
259.192
259.193
259.195
259.196
259.197
259.199
259.201
259.204
259.207
259.211
259.218
259.233
259.266
259.113
259.128
259.134
259.137
259.139
259.14
259.141
259.142
259.142
259.143
259.143
259.144
259.144
259.145
259.145
259.146
259.146
259.147
259.147
259.148
259.149
259.15
259.151
259.153
259.154
259.156
259.158
259.161
259.163
259.165
259.166
259.167
259.168
259.168
259.17
259.171
259.172
259.173
259.174
259.175
259.177
259.178
259.18
259.182
259.184
259.187
259.191
259.197
259.212
259.243
259.098
259.112
259.117
259.12
259.122
259.123
259.124
259.125
259.125
259.126
259.126
259.127
259.127
259.127
259.128
259.128
259.129
259.129
259.13
259.13
259.131
259.132
259.133
259.135
259.136
259.137
259.139
259.142
259.144
259.146
259.147
259.148
259.148
259.149
259.15
259.151
259.152
259.153
259.154
259.155
259.157
259.158
259.159
259.161
259.163
259.166
259.17
259.175
259.19
259.22
259.083
259.095
259.1
259.103
259.104
259.105
259.106
259.107
259.107
259.108
259.108
259.109
259.109
259.109
259.11
259.11
259.11
259.111
259.111
259.112
259.113
259.114
259.115
259.116
259.117
259.118
259.12
259.122
259.125
259.126
259.127
259.127
259.128
259.129
259.13
259.131
259.132
259.133
259.134
259.135
259.136
259.137
259.138
259.14