/*--------------------------------*- C++ -*----------------------------------*\
| =========                 |                                                 |
| \\      /  F ield         | OpenFOAM: The Open Source CFD Toolbox           |
|  \\    /   O peration     | Version:  v1912                                 |
|   \\  /    A nd           | Website:  www.openfoam.com                      |
|    \\/     M anipulation  |                                                 |
\*---------------------------------------------------------------------------*/
FoamFile
{
    version     2.0;
    format      ascii;
    class       surfaceScalarField;
    location    "31536000";
    object      T_F;
}
// * * * * * * * * * * * * * * * * * * * * * * * * * * * * * * * * * * * * * //

dimensions      [0 0 0 1 0 0 0];


internalField   nonuniform List<scalar> 
8365
(
260.368
260.348
260.402
260.384
260.433
260.417
260.457
260.445
260.477
260.467
260.493
260.485
260.505
260.498
260.515
260.509
260.523
260.518
260.53
260.525
260.536
260.532
260.541
260.537
260.547
260.543
260.553
260.548
260.559
260.554
260.566
260.561
260.574
260.568
260.582
260.576
260.591
260.585
260.599
260.594
260.606
260.602
260.612
260.608
260.614
260.612
260.613
260.614
260.607
260.61
260.594
260.601
260.578
260.586
260.563
260.569
260.549
260.554
260.536
260.541
260.523
260.529
260.511
260.516
260.5
260.505
260.489
260.493
260.479
260.483
260.47
260.474
260.463
260.466
260.458
260.459
260.455
260.455
260.454
260.453
260.456
260.453
260.46
260.456
260.467
260.462
260.478
260.471
260.493
260.483
260.513
260.501
260.537
260.523
260.564
260.549
260.588
260.576
260.598
260.364
260.344
260.399
260.379
260.429
260.413
260.454
260.441
260.474
260.463
260.49
260.48
260.502
260.494
260.512
260.505
260.52
260.514
260.527
260.521
260.533
260.528
260.539
260.533
260.544
260.539
260.55
260.544
260.556
260.55
260.563
260.557
260.571
260.564
260.579
260.572
260.588
260.581
260.596
260.589
260.603
260.597
260.609
260.604
260.612
260.608
260.611
260.609
260.604
260.606
260.592
260.597
260.576
260.583
260.561
260.566
260.547
260.552
260.534
260.538
260.522
260.526
260.51
260.514
260.498
260.502
260.487
260.491
260.477
260.48
260.469
260.471
260.462
260.463
260.457
260.457
260.453
260.453
260.452
260.451
260.454
260.451
260.458
260.454
260.465
260.459
260.476
260.468
260.491
260.481
260.511
260.498
260.535
260.52
260.562
260.546
260.586
260.574
260.596
260.359
260.337
260.393
260.372
260.424
260.406
260.449
260.434
260.469
260.456
260.485
260.474
260.497
260.488
260.507
260.499
260.515
260.508
260.522
260.515
260.528
260.521
260.533
260.527
260.539
260.532
260.545
260.538
260.551
260.544
260.558
260.55
260.565
260.558
260.574
260.566
260.582
260.574
260.591
260.583
260.598
260.591
260.603
260.597
260.606
260.601
260.605
260.603
260.599
260.6
260.588
260.591
260.572
260.578
260.557
260.561
260.543
260.547
260.53
260.534
260.518
260.521
260.506
260.509
260.495
260.498
260.484
260.487
260.474
260.476
260.466
260.467
260.459
260.459
260.453
260.453
260.45
260.449
260.449
260.447
260.451
260.447
260.455
260.45
260.462
260.455
260.473
260.464
260.487
260.476
260.507
260.493
260.531
260.515
260.558
260.542
260.583
260.569
260.592
260.351
260.328
260.385
260.364
260.416
260.397
260.441
260.425
260.461
260.448
260.477
260.465
260.49
260.479
260.5
260.49
260.508
260.499
260.514
260.506
260.52
260.513
260.526
260.518
260.531
260.524
260.537
260.529
260.543
260.535
260.55
260.541
260.558
260.549
260.566
260.556
260.574
260.565
260.583
260.573
260.59
260.581
260.595
260.588
260.598
260.592
260.597
260.593
260.592
260.591
260.581
260.583
260.567
260.571
260.551
260.555
260.538
260.54
260.525
260.527
260.513
260.515
260.501
260.503
260.49
260.492
260.479
260.481
260.469
260.471
260.461
260.461
260.454
260.454
260.449
260.448
260.445
260.443
260.444
260.441
260.446
260.441
260.45
260.444
260.457
260.45
260.468
260.458
260.482
260.471
260.502
260.488
260.526
260.509
260.553
260.536
260.578
260.564
260.587
260.341
260.318
260.376
260.353
260.407
260.387
260.432
260.415
260.452
260.437
260.467
260.455
260.48
260.468
260.49
260.479
260.498
260.488
260.505
260.496
260.51
260.502
260.516
260.507
260.521
260.513
260.527
260.518
260.533
260.524
260.54
260.53
260.548
260.537
260.556
260.545
260.564
260.554
260.572
260.562
260.579
260.57
260.585
260.576
260.588
260.581
260.587
260.582
260.582
260.58
260.573
260.573
260.559
260.562
260.544
260.546
260.53
260.532
260.518
260.519
260.506
260.507
260.494
260.496
260.483
260.484
260.472
260.473
260.463
260.463
260.454
260.454
260.447
260.447
260.442
260.441
260.439
260.437
260.438
260.435
260.44
260.435
260.444
260.437
260.451
260.443
260.461
260.451
260.476
260.464
260.495
260.48
260.519
260.502
260.546
260.528
260.573
260.557
260.581
260.33
260.306
260.364
260.341
260.395
260.375
260.42
260.403
260.44
260.425
260.456
260.442
260.468
260.456
260.478
260.467
260.486
260.476
260.493
260.483
260.499
260.489
260.504
260.495
260.509
260.5
260.515
260.505
260.521
260.511
260.528
260.517
260.535
260.524
260.543
260.532
260.552
260.54
260.56
260.549
260.567
260.557
260.572
260.563
260.575
260.567
260.575
260.569
260.571
260.568
260.562
260.562
260.549
260.551
260.535
260.536
260.521
260.522
260.509
260.51
260.497
260.498
260.486
260.487
260.475
260.475
260.464
260.465
260.455
260.455
260.447
260.446
260.44
260.438
260.435
260.433
260.432
260.428
260.431
260.426
260.432
260.427
260.436
260.429
260.443
260.435
260.454
260.443
260.468
260.455
260.487
260.472
260.511
260.494
260.539
260.52
260.565
260.549
260.574
260.318
260.293
260.352
260.328
260.382
260.362
260.407
260.389
260.427
260.411
260.442
260.428
260.455
260.442
260.465
260.453
260.473
260.461
260.479
260.469
260.485
260.475
260.49
260.48
260.496
260.485
260.501
260.491
260.507
260.496
260.514
260.503
260.521
260.51
260.529
260.517
260.538
260.525
260.546
260.534
260.553
260.541
260.558
260.548
260.561
260.553
260.562
260.555
260.558
260.554
260.551
260.548
260.538
260.539
260.524
260.525
260.511
260.511
260.499
260.499
260.487
260.487
260.476
260.476
260.465
260.465
260.455
260.455
260.446
260.445
260.438
260.436
260.431
260.429
260.426
260.423
260.423
260.419
260.422
260.417
260.424
260.418
260.428
260.42
260.435
260.425
260.445
260.434
260.459
260.446
260.478
260.462
260.502
260.484
260.53
260.51
260.557
260.539
260.566
260.304
260.278
260.338
260.314
260.368
260.347
260.393
260.374
260.412
260.396
260.428
260.413
260.44
260.426
260.45
260.437
260.458
260.446
260.464
260.453
260.47
260.459
260.475
260.464
260.48
260.47
260.486
260.475
260.492
260.48
260.498
260.486
260.506
260.493
260.514
260.501
260.522
260.509
260.53
260.517
260.537
260.525
260.543
260.532
260.546
260.536
260.547
260.539
260.544
260.539
260.537
260.534
260.526
260.525
260.512
260.512
260.499
260.499
260.487
260.487
260.476
260.475
260.465
260.464
260.455
260.454
260.445
260.444
260.436
260.434
260.428
260.426
260.421
260.418
260.416
260.413
260.413
260.409
260.413
260.407
260.414
260.407
260.418
260.41
260.425
260.415
260.435
260.423
260.449
260.435
260.468
260.452
260.492
260.473
260.52
260.5
260.548
260.529
260.556
260.289
260.263
260.323
260.299
260.353
260.332
260.377
260.358
260.397
260.38
260.412
260.397
260.424
260.41
260.433
260.421
260.441
260.429
260.448
260.436
260.454
260.442
260.459
260.447
260.464
260.452
260.469
260.458
260.475
260.463
260.482
260.469
260.489
260.476
260.497
260.483
260.505
260.491
260.513
260.5
260.52
260.507
260.526
260.514
260.53
260.519
260.531
260.522
260.529
260.522
260.522
260.518
260.512
260.511
260.499
260.498
260.486
260.485
260.475
260.473
260.464
260.462
260.453
260.451
260.443
260.441
260.433
260.431
260.424
260.422
260.416
260.414
260.41
260.407
260.405
260.401
260.403
260.397
260.402
260.396
260.403
260.396
260.407
260.399
260.414
260.404
260.424
260.412
260.438
260.424
260.457
260.44
260.481
260.461
260.509
260.488
260.538
260.518
260.546
260.273
260.247
260.308
260.283
260.337
260.315
260.361
260.342
260.38
260.363
260.395
260.379
260.407
260.393
260.416
260.403
260.424
260.411
260.43
260.418
260.436
260.424
260.441
260.429
260.446
260.434
260.452
260.44
260.457
260.445
260.464
260.451
260.471
260.458
260.478
260.465
260.487
260.473
260.494
260.481
260.502
260.489
260.508
260.495
260.512
260.501
260.514
260.504
260.512
260.504
260.506
260.501
260.497
260.494
260.484
260.482
260.472
260.47
260.461
260.459
260.45
260.448
260.44
260.438
260.43
260.427
260.42
260.418
260.412
260.409
260.404
260.401
260.398
260.394
260.393
260.389
260.391
260.385
260.39
260.383
260.392
260.384
260.396
260.387
260.402
260.392
260.412
260.4
260.426
260.411
260.445
260.427
260.469
260.449
260.497
260.475
260.526
260.505
260.535
260.257
260.229
260.291
260.266
260.32
260.298
260.344
260.324
260.362
260.345
260.377
260.361
260.389
260.374
260.398
260.385
260.406
260.393
260.412
260.4
260.418
260.405
260.423
260.411
260.428
260.416
260.433
260.421
260.439
260.426
260.445
260.432
260.452
260.438
260.459
260.445
260.467
260.453
260.475
260.461
260.483
260.469
260.489
260.476
260.493
260.481
260.495
260.485
260.494
260.486
260.489
260.483
260.48
260.477
260.468
260.466
260.457
260.454
260.446
260.443
260.435
260.433
260.425
260.423
260.416
260.413
260.406
260.403
260.398
260.395
260.391
260.387
260.385
260.38
260.381
260.375
260.378
260.372
260.377
260.37
260.379
260.371
260.383
260.374
260.389
260.379
260.399
260.387
260.413
260.398
260.432
260.414
260.455
260.435
260.484
260.462
260.514
260.492
260.523
260.239
260.211
260.274
260.249
260.303
260.28
260.326
260.306
260.344
260.326
260.359
260.343
260.37
260.355
260.379
260.365
260.387
260.373
260.393
260.38
260.398
260.386
260.403
260.391
260.408
260.396
260.414
260.401
260.419
260.406
260.425
260.412
260.432
260.418
260.439
260.425
260.447
260.433
260.455
260.441
260.463
260.449
260.469
260.455
260.473
260.461
260.476
260.465
260.475
260.466
260.471
260.464
260.463
260.459
260.452
260.448
260.441
260.437
260.43
260.427
260.42
260.416
260.41
260.407
260.401
260.397
260.392
260.388
260.384
260.38
260.377
260.372
260.371
260.366
260.367
260.361
260.364
260.358
260.364
260.356
260.366
260.357
260.369
260.36
260.376
260.365
260.386
260.373
260.399
260.384
260.418
260.4
260.441
260.421
260.47
260.447
260.501
260.478
260.509
260.221
260.193
260.256
260.23
260.284
260.262
260.307
260.287
260.325
260.307
260.339
260.323
260.351
260.335
260.36
260.345
260.367
260.353
260.373
260.36
260.379
260.366
260.383
260.371
260.388
260.375
260.393
260.38
260.399
260.385
260.405
260.391
260.411
260.397
260.419
260.404
260.427
260.412
260.434
260.42
260.442
260.427
260.448
260.434
260.453
260.44
260.455
260.444
260.455
260.446
260.452
260.444
260.444
260.439
260.434
260.43
260.423
260.419
260.413
260.409
260.403
260.399
260.394
260.39
260.385
260.381
260.376
260.372
260.369
260.364
260.362
260.357
260.356
260.351
260.352
260.346
260.35
260.343
260.35
260.342
260.351
260.342
260.355
260.345
260.362
260.35
260.371
260.358
260.385
260.369
260.403
260.385
260.426
260.405
260.455
260.432
260.487
260.463
260.496
260.202
260.173
260.237
260.212
260.265
260.243
260.288
260.268
260.305
260.287
260.319
260.303
260.33
260.315
260.339
260.325
260.347
260.333
260.353
260.339
260.358
260.345
260.363
260.35
260.367
260.354
260.372
260.359
260.378
260.364
260.384
260.37
260.39
260.376
260.397
260.383
260.405
260.39
260.413
260.398
260.42
260.405
260.426
260.412
260.431
260.418
260.434
260.422
260.435
260.424
260.432
260.423
260.425
260.419
260.416
260.411
260.405
260.401
260.396
260.391
260.386
260.382
260.377
260.373
260.368
260.364
260.36
260.355
260.353
260.348
260.346
260.341
260.341
260.335
260.337
260.33
260.335
260.328
260.335
260.326
260.336
260.327
260.34
260.33
260.347
260.335
260.356
260.343
260.369
260.354
260.387
260.369
260.411
260.389
260.44
260.416
260.472
260.447
260.481
260.183
260.154
260.218
260.192
260.245
260.223
260.268
260.248
260.285
260.267
260.299
260.282
260.31
260.294
260.318
260.304
260.326
260.311
260.331
260.318
260.337
260.323
260.341
260.328
260.346
260.333
260.351
260.337
260.356
260.342
260.362
260.348
260.368
260.354
260.375
260.36
260.383
260.368
260.39
260.375
260.398
260.383
260.404
260.39
260.409
260.396
260.413
260.4
260.413
260.402
260.411
260.402
260.405
260.398
260.396
260.391
260.387
260.381
260.377
260.372
260.368
260.363
260.359
260.354
260.351
260.346
260.343
260.338
260.336
260.331
260.33
260.324
260.325
260.318
260.321
260.314
260.319
260.311
260.319
260.31
260.321
260.311
260.325
260.314
260.331
260.319
260.34
260.327
260.353
260.337
260.371
260.352
260.395
260.373
260.424
260.399
260.457
260.431
260.466
260.163
260.133
260.198
260.172
260.225
260.203
260.247
260.227
260.264
260.246
260.278
260.261
260.288
260.273
260.297
260.282
260.304
260.29
260.31
260.296
260.315
260.301
260.32
260.306
260.324
260.311
260.329
260.315
260.334
260.32
260.34
260.325
260.346
260.331
260.353
260.338
260.36
260.345
260.368
260.352
260.375
260.36
260.382
260.367
260.387
260.373
260.39
260.377
260.391
260.38
260.389
260.38
260.384
260.377
260.376
260.37
260.367
260.361
260.358
260.352
260.349
260.344
260.341
260.335
260.333
260.327
260.325
260.32
260.319
260.313
260.313
260.306
260.308
260.301
260.305
260.297
260.303
260.295
260.303
260.294
260.305
260.295
260.308
260.298
260.315
260.302
260.324
260.31
260.337
260.321
260.354
260.335
260.378
260.356
260.407
260.382
260.44
260.414
260.45
260.143
260.113
260.177
260.152
260.205
260.182
260.226
260.206
260.243
260.225
260.256
260.239
260.267
260.251
260.275
260.26
260.282
260.268
260.288
260.274
260.293
260.279
260.297
260.283
260.302
260.288
260.306
260.292
260.311
260.297
260.317
260.302
260.323
260.308
260.33
260.314
260.337
260.321
260.344
260.329
260.352
260.336
260.358
260.343
260.364
260.349
260.367
260.354
260.369
260.357
260.367
260.357
260.363
260.355
260.355
260.349
260.347
260.341
260.338
260.332
260.33
260.324
260.322
260.316
260.314
260.308
260.307
260.301
260.301
260.294
260.295
260.288
260.291
260.283
260.288
260.28
260.286
260.277
260.286
260.277
260.288
260.278
260.292
260.28
260.298
260.285
260.307
260.293
260.319
260.303
260.337
260.318
260.36
260.338
260.389
260.364
260.423
260.396
260.433
260.122
260.092
260.157
260.131
260.184
260.161
260.205
260.185
260.221
260.203
260.234
260.217
260.245
260.229
260.253
260.238
260.259
260.245
260.265
260.251
260.27
260.256
260.274
260.261
260.279
260.265
260.283
260.269
260.288
260.274
260.294
260.279
260.3
260.284
260.306
260.291
260.313
260.298
260.321
260.305
260.328
260.312
260.334
260.319
260.34
260.325
260.344
260.33
260.345
260.333
260.345
260.334
260.341
260.332
260.334
260.327
260.326
260.319
260.318
260.311
260.31
260.304
260.303
260.296
260.295
260.289
260.288
260.282
260.282
260.276
260.277
260.27
260.273
260.265
260.27
260.262
260.268
260.26
260.269
260.259
260.271
260.26
260.274
260.263
260.28
260.268
260.289
260.275
260.302
260.285
260.319
260.3
260.342
260.319
260.371
260.345
260.406
260.378
260.416
260.101
260.07
260.136
260.11
260.163
260.14
260.183
260.163
260.199
260.181
260.212
260.195
260.222
260.206
260.23
260.215
260.237
260.222
260.242
260.228
260.247
260.233
260.251
260.237
260.256
260.242
260.26
260.246
260.265
260.25
260.27
260.255
260.276
260.261
260.282
260.267
260.289
260.273
260.296
260.281
260.304
260.288
260.31
260.295
260.316
260.301
260.32
260.306
260.322
260.309
260.321
260.31
260.318
260.309
260.312
260.305
260.305
260.298
260.297
260.29
260.29
260.283
260.283
260.276
260.276
260.269
260.269
260.262
260.263
260.256
260.258
260.251
260.254
260.247
260.252
260.243
260.251
260.241
260.251
260.241
260.253
260.242
260.256
260.245
260.262
260.25
260.271
260.257
260.283
260.267
260.3
260.281
260.323
260.301
260.352
260.326
260.388
260.359
260.398
260.08
260.049
260.115
260.089
260.141
260.119
260.161
260.141
260.177
260.159
260.189
260.172
260.199
260.183
260.207
260.192
260.213
260.199
260.219
260.205
260.223
260.209
260.228
260.214
260.232
260.218
260.236
260.222
260.241
260.226
260.246
260.231
260.252
260.236
260.258
260.242
260.265
260.249
260.272
260.256
260.279
260.263
260.286
260.27
260.291
260.276
260.295
260.281
260.298
260.285
260.298
260.286
260.295
260.285
260.29
260.282
260.283
260.276
260.276
260.268
260.269
260.261
260.262
260.255
260.256
260.248
260.249
260.242
260.244
260.236
260.239
260.231
260.236
260.227
260.233
260.224
260.232
260.223
260.232
260.222
260.234
260.224
260.238
260.226
260.244
260.231
260.253
260.238
260.265
260.248
260.281
260.262
260.304
260.281
260.333
260.307
260.369
260.34
260.379
260.058
260.027
260.093
260.067
260.119
260.097
260.139
260.119
260.154
260.136
260.166
260.15
260.176
260.16
260.184
260.168
260.19
260.175
260.195
260.181
260.2
260.186
260.204
260.19
260.208
260.194
260.212
260.198
260.217
260.202
260.222
260.207
260.227
260.212
260.234
260.218
260.24
260.224
260.247
260.231
260.254
260.238
260.261
260.245
260.266
260.251
260.271
260.256
260.273
260.26
260.274
260.262
260.272
260.261
260.267
260.259
260.261
260.253
260.254
260.246
260.247
260.24
260.241
260.233
260.235
260.227
260.229
260.222
260.224
260.216
260.22
260.212
260.216
260.208
260.214
260.205
260.213
260.204
260.214
260.203
260.216
260.205
260.219
260.207
260.225
260.212
260.234
260.219
260.246
260.229
260.262
260.243
260.284
260.261
260.314
260.287
260.35
260.32
260.361
260.036
260.005
260.071
260.046
260.097
260.075
260.116
260.097
260.132
260.113
260.143
260.126
260.153
260.137
260.16
260.145
260.166
260.152
260.172
260.157
260.176
260.162
260.18
260.166
260.184
260.17
260.188
260.174
260.193
260.178
260.197
260.182
260.203
260.188
260.209
260.193
260.215
260.199
260.222
260.206
260.229
260.213
260.236
260.22
260.241
260.226
260.246
260.231
260.249
260.235
260.249
260.237
260.248
260.237
260.244
260.235
260.238
260.23
260.232
260.224
260.226
260.218
260.22
260.212
260.214
260.206
260.209
260.201
260.204
260.196
260.2
260.191
260.197
260.188
260.195
260.186
260.194
260.184
260.195
260.184
260.197
260.185
260.2
260.188
260.206
260.193
260.214
260.199
260.226
260.209
260.242
260.223
260.264
260.241
260.294
260.267
260.331
260.3
260.341
260.015
259.983
260.049
260.024
260.075
260.053
260.094
260.074
260.109
260.091
260.12
260.103
260.129
260.113
260.137
260.121
260.143
260.128
260.148
260.133
260.152
260.138
260.156
260.142
260.16
260.146
260.164
260.149
260.168
260.153
260.173
260.158
260.178
260.163
260.184
260.168
260.19
260.174
260.197
260.181
260.204
260.188
260.21
260.194
260.216
260.201
260.221
260.206
260.224
260.21
260.225
260.212
260.224
260.213
260.221
260.211
260.216
260.207
260.21
260.201
260.204
260.195
260.198
260.19
260.193
260.184
260.188
260.179
260.183
260.175
260.18
260.171
260.177
260.168
260.175
260.166
260.174
260.164
260.175
260.164
260.177
260.166
260.181
260.168
260.186
260.173
260.195
260.18
260.206
260.189
260.222
260.202
260.244
260.221
260.273
260.246
260.311
260.279
260.321
259.993
259.961
260.027
260.002
260.052
260.03
260.071
260.051
260.085
260.067
260.097
260.08
260.106
260.09
260.113
260.098
260.119
260.104
260.123
260.109
260.128
260.114
260.132
260.117
260.135
260.121
260.139
260.125
260.143
260.129
260.148
260.133
260.153
260.138
260.159
260.143
260.165
260.149
260.172
260.156
260.178
260.162
260.185
260.169
260.191
260.175
260.195
260.18
260.198
260.184
260.2
260.187
260.2
260.188
260.197
260.187
260.193
260.183
260.187
260.178
260.181
260.173
260.176
260.167
260.171
260.163
260.167
260.158
260.163
260.154
260.159
260.15
260.157
260.147
260.155
260.145
260.155
260.144
260.155
260.144
260.157
260.146
260.161
260.148
260.166
260.153
260.175
260.16
260.186
260.169
260.201
260.182
260.223
260.2
260.252
260.225
260.29
260.258
260.301
259.971
259.939
260.005
259.98
260.03
260.008
260.048
260.029
260.062
260.044
260.073
260.056
260.082
260.066
260.089
260.074
260.095
260.08
260.099
260.085
260.103
260.089
260.107
260.093
260.111
260.097
260.115
260.1
260.119
260.104
260.123
260.108
260.128
260.113
260.134
260.118
260.14
260.124
260.146
260.13
260.153
260.137
260.159
260.143
260.165
260.15
260.17
260.155
260.173
260.159
260.175
260.162
260.175
260.163
260.173
260.163
260.169
260.16
260.164
260.155
260.159
260.15
260.154
260.145
260.149
260.14
260.145
260.136
260.141
260.132
260.138
260.129
260.136
260.126
260.135
260.125
260.134
260.124
260.135
260.124
260.137
260.126
260.141
260.128
260.146
260.133
260.154
260.139
260.165
260.148
260.181
260.161
260.202
260.179
260.231
260.203
260.27
260.237
260.281
259.948
259.917
259.983
259.958
260.007
259.986
260.025
260.006
260.039
260.021
260.05
260.033
260.058
260.042
260.065
260.05
260.07
260.056
260.075
260.061
260.079
260.065
260.083
260.069
260.086
260.072
260.09
260.076
260.094
260.079
260.098
260.083
260.103
260.088
260.109
260.093
260.115
260.099
260.121
260.105
260.127
260.111
260.134
260.118
260.139
260.124
260.144
260.129
260.148
260.133
260.15
260.136
260.151
260.138
260.149
260.139
260.146
260.136
260.141
260.131
260.136
260.127
260.132
260.122
260.127
260.118
260.124
260.114
260.12
260.111
260.117
260.108
260.115
260.105
260.114
260.104
260.114
260.103
260.115
260.104
260.117
260.105
260.12
260.108
260.126
260.112
260.134
260.119
260.144
260.128
260.16
260.14
260.181
260.157
260.21
260.182
260.248
260.215
260.26
259.926
259.895
259.961
259.936
259.985
259.963
260.002
259.983
260.016
259.998
260.026
260.009
260.034
260.019
260.041
260.026
260.046
260.032
260.051
260.036
260.055
260.04
260.058
260.044
260.062
260.048
260.065
260.051
260.069
260.055
260.073
260.059
260.078
260.063
260.083
260.068
260.089
260.073
260.095
260.079
260.102
260.086
260.108
260.092
260.114
260.098
260.119
260.103
260.122
260.108
260.125
260.111
260.126
260.113
260.125
260.114
260.122
260.112
260.117
260.108
260.113
260.103
260.109
260.099
260.105
260.096
260.102
260.092
260.099
260.089
260.096
260.086
260.094
260.084
260.093
260.083
260.093
260.082
260.094
260.083
260.096
260.084
260.1
260.087
260.105
260.091
260.113
260.098
260.123
260.107
260.138
260.119
260.159
260.136
260.188
260.16
260.227
260.194
260.239
259.904
259.873
259.939
259.914
259.962
259.941
259.979
259.96
259.992
259.975
260.002
259.986
260.01
259.995
260.017
260.002
260.022
260.007
260.026
260.012
260.03
260.016
260.034
260.02
260.037
260.023
260.041
260.026
260.044
260.03
260.048
260.034
260.053
260.038
260.058
260.043
260.064
260.048
260.07
260.054
260.076
260.06
260.082
260.066
260.088
260.072
260.093
260.078
260.097
260.082
260.099
260.085
260.101
260.088
260.101
260.089
260.098
260.088
260.094
260.084
260.09
260.08
260.086
260.076
260.083
260.073
260.08
260.07
260.077
260.067
260.075
260.065
260.073
260.063
260.072
260.062
260.072
260.061
260.073
260.062
260.075
260.063
260.079
260.066
260.084
260.07
260.092
260.077
260.102
260.085
260.117
260.097
260.137
260.114
260.166
260.138
260.205
260.171
260.217
259.882
259.851
259.916
259.892
259.939
259.919
259.956
259.938
259.969
259.952
259.979
259.962
259.986
259.971
259.993
259.978
259.998
259.983
260.002
259.988
260.006
259.992
260.009
259.995
260.012
259.998
260.016
260.002
260.019
260.005
260.023
260.009
260.028
260.013
260.033
260.018
260.038
260.023
260.044
260.028
260.05
260.034
260.057
260.041
260.062
260.047
260.067
260.052
260.071
260.056
260.074
260.06
260.076
260.063
260.076
260.065
260.074
260.063
260.07
260.06
260.067
260.057
260.063
260.053
260.06
260.05
260.057
260.047
260.055
260.045
260.053
260.043
260.052
260.041
260.051
260.04
260.051
260.04
260.052
260.041
260.054
260.042
260.058
260.045
260.063
260.049
260.07
260.055
260.081
260.064
260.095
260.076
260.115
260.092
260.144
260.115
260.184
260.149
260.196
259.86
259.829
259.894
259.87
259.917
259.896
259.933
259.915
259.946
259.928
259.955
259.939
259.963
259.947
259.969
259.954
259.974
259.959
259.978
259.964
259.981
259.967
259.985
259.971
259.988
259.974
259.991
259.977
259.995
259.98
259.999
259.984
260.003
259.988
260.008
259.992
260.013
259.998
260.019
260.003
260.025
260.009
260.031
260.015
260.037
260.021
260.041
260.026
260.045
260.031
260.049
260.034
260.051
260.037
260.052
260.04
260.05
260.039
260.047
260.036
260.043
260.033
260.04
260.03
260.037
260.027
260.035
260.025
260.033
260.022
260.031
260.021
260.03
260.019
260.03
260.019
260.03
260.019
260.031
260.019
260.033
260.021
260.036
260.024
260.042
260.028
260.049
260.034
260.059
260.042
260.073
260.054
260.093
260.07
260.121
260.093
260.161
260.127
260.174
259.838
259.807
259.872
259.848
259.894
259.874
259.91
259.892
259.922
259.905
259.932
259.916
259.939
259.924
259.945
259.93
259.95
259.935
259.954
259.94
259.957
259.943
259.96
259.947
259.963
259.95
259.967
259.953
259.97
259.956
259.974
259.959
259.978
259.963
259.983
259.968
259.988
259.972
259.993
259.978
259.999
259.983
260.005
259.989
260.011
259.995
260.016
260.001
260.02
260.005
260.023
260.009
260.026
260.012
260.027
260.015
260.026
260.015
260.023
260.012
260.02
260.009
260.017
260.007
260.015
260.004
260.012
260.002
260.011
260
260.009
259.999
260.008
259.998
260.008
259.997
260.008
259.997
260.01
259.998
260.012
259.999
260.015
260.002
260.02
260.006
260.027
260.012
260.037
260.021
260.051
260.032
260.07
260.048
260.099
260.07
260.139
260.104
260.151
259.817
259.785
259.85
259.826
259.872
259.852
259.887
259.869
259.899
259.882
259.908
259.892
259.915
259.9
259.921
259.906
259.926
259.911
259.929
259.916
259.933
259.919
259.936
259.922
259.939
259.925
259.942
259.928
259.945
259.931
259.949
259.935
259.953
259.938
259.958
259.943
259.963
259.947
259.968
259.953
259.974
259.958
259.98
259.964
259.985
259.97
259.99
259.975
259.994
259.98
259.998
259.983
260.001
259.987
260.003
259.99
260.002
259.99
259.999
259.988
259.996
259.986
259.994
259.983
259.992
259.981
259.99
259.979
259.988
259.978
259.987
259.976
259.987
259.976
259.986
259.975
259.987
259.976
259.988
259.976
259.99
259.978
259.994
259.981
259.999
259.985
260.006
259.991
260.015
259.999
260.029
260.01
260.048
260.025
260.076
260.048
260.116
260.081
260.129
259.795
259.764
259.828
259.804
259.85
259.83
259.865
259.847
259.876
259.86
259.885
259.869
259.892
259.877
259.897
259.883
259.902
259.888
259.905
259.892
259.909
259.895
259.912
259.898
259.915
259.901
259.918
259.904
259.921
259.907
259.924
259.91
259.928
259.914
259.933
259.918
259.938
259.922
259.943
259.927
259.949
259.933
259.954
259.939
259.96
259.944
259.965
259.95
259.969
259.954
259.973
259.958
259.976
259.962
259.978
259.965
259.977
259.966
259.975
259.964
259.973
259.962
259.971
259.96
259.969
259.958
259.967
259.956
259.966
259.955
259.965
259.954
259.965
259.954
259.965
259.954
259.965
259.954
259.966
259.955
259.969
259.956
259.972
259.959
259.977
259.963
259.984
259.969
259.993
259.977
260.007
259.988
260.025
260.003
260.053
260.025
260.094
260.058
260.107
259.773
259.742
259.806
259.783
259.827
259.808
259.842
259.825
259.853
259.837
259.861
259.846
259.868
259.853
259.873
259.859
259.878
259.864
259.882
259.868
259.885
259.871
259.888
259.874
259.89
259.877
259.893
259.88
259.896
259.883
259.9
259.886
259.904
259.889
259.908
259.893
259.913
259.898
259.918
259.903
259.923
259.908
259.929
259.914
259.934
259.919
259.939
259.924
259.944
259.929
259.948
259.933
259.951
259.937
259.954
259.941
259.953
259.942
259.951
259.94
259.949
259.938
259.947
259.936
259.946
259.935
259.945
259.934
259.944
259.933
259.943
259.932
259.943
259.932
259.943
259.932
259.943
259.932
259.945
259.933
259.947
259.935
259.95
259.937
259.955
259.941
259.962
259.947
259.971
259.955
259.984
259.966
260.003
259.98
260.03
260.002
260.071
260.035
260.084
259.752
259.721
259.785
259.762
259.805
259.786
259.82
259.802
259.83
259.814
259.838
259.823
259.845
259.83
259.85
259.836
259.854
259.84
259.858
259.844
259.861
259.848
259.864
259.85
259.866
259.853
259.869
259.856
259.872
259.859
259.875
259.862
259.879
259.865
259.883
259.869
259.888
259.873
259.893
259.878
259.898
259.883
259.904
259.889
259.909
259.894
259.914
259.899
259.918
259.904
259.923
259.908
259.927
259.912
259.929
259.916
259.929
259.917
259.928
259.916
259.926
259.915
259.924
259.913
259.923
259.912
259.922
259.911
259.921
259.91
259.921
259.91
259.921
259.91
259.921
259.91
259.922
259.91
259.923
259.911
259.925
259.913
259.928
259.915
259.933
259.919
259.94
259.925
259.949
259.933
259.962
259.943
259.98
259.958
260.007
259.979
260.048
260.012
260.061
259.731
259.7
259.763
259.74
259.783
259.764
259.797
259.78
259.807
259.792
259.815
259.8
259.822
259.807
259.827
259.813
259.831
259.817
259.834
259.821
259.837
259.824
259.84
259.827
259.843
259.829
259.845
259.832
259.848
259.835
259.851
259.838
259.855
259.841
259.859
259.844
259.863
259.849
259.868
259.853
259.873
259.858
259.879
259.864
259.884
259.869
259.889
259.874
259.893
259.879
259.898
259.883
259.902
259.887
259.905
259.892
259.905
259.893
259.904
259.893
259.902
259.891
259.901
259.89
259.9
259.889
259.899
259.888
259.899
259.888
259.899
259.887
259.899
259.887
259.899
259.888
259.9
259.888
259.901
259.889
259.903
259.891
259.907
259.894
259.911
259.897
259.918
259.903
259.927
259.911
259.939
259.921
259.957
259.935
259.984
259.956
260.025
259.988
260.038
259.71
259.679
259.742
259.719
259.761
259.743
259.775
259.758
259.785
259.769
259.793
259.778
259.799
259.784
259.803
259.79
259.807
259.794
259.811
259.798
259.814
259.801
259.816
259.803
259.819
259.806
259.821
259.808
259.824
259.811
259.827
259.814
259.831
259.817
259.835
259.82
259.839
259.824
259.844
259.829
259.849
259.834
259.854
259.839
259.859
259.844
259.864
259.849
259.869
259.854
259.873
259.858
259.877
259.863
259.881
259.867
259.881
259.869
259.88
259.869
259.879
259.868
259.878
259.867
259.877
259.866
259.877
259.865
259.876
259.865
259.876
259.865
259.877
259.865
259.877
259.866
259.878
259.866
259.879
259.867
259.881
259.869
259.885
259.872
259.889
259.876
259.896
259.881
259.905
259.888
259.917
259.899
259.934
259.912
259.961
259.933
260.002
259.965
260.015
259.689
259.659
259.72
259.698
259.74
259.721
259.753
259.736
259.763
259.747
259.77
259.755
259.776
259.762
259.78
259.767
259.784
259.771
259.788
259.774
259.79
259.777
259.793
259.78
259.795