/*--------------------------------*- C++ -*----------------------------------*\
| =========                 |                                                 |
| \\      /  F ield         | OpenFOAM: The Open Source CFD Toolbox           |
|  \\    /   O peration     | Version:  v1912                                 |
|   \\  /    A nd           | Website:  www.openfoam.com                      |
|    \\/     M anipulation  |                                                 |
\*---------------------------------------------------------------------------*/
FoamFile
{
    version     2.0;
    format      ascii;
    class       volScalarField;
    location    "31536000";
    object      thetag;
}
// * * * * * * * * * * * * * * * * * * * * * * * * * * * * * * * * * * * * * //

dimensions      [0 0 0 0 0 0 0];


internalField   nonuniform List<scalar> 
4250
(
0.139957
0.139245
0.13924
0.139231
0.139229
0.139228
0.139228
0.139228
0.139228
0.139228
0.139227
0.139227
0.139227
0.139227
0.139227
0.139227
0.139227
0.139227
0.139228
0.139228
0.139228
0.139231
0.139239
0.139265
0.139469
0.143049
0.242403
0.253215
0.262598
0.27126
0.279745
0.288339
0.297105
0.305939
0.314687
0.323174
0.331273
0.338866
0.345881
0.352293
0.358084
0.363263
0.367873
0.371944
0.375538
0.378666
0.381351
0.383676
0.385691
0.388764
0.142208
0.139434
0.139306
0.139248
0.139242
0.139232
0.13923
0.13923
0.13923
0.13923
0.139229
0.139229
0.139229
0.139229
0.139229
0.139229
0.139229
0.139229
0.13923
0.13923
0.139234
0.139249
0.139287
0.139388
0.140075
0.148585
0.235258
0.253305
0.262818
0.271452
0.2799
0.288446
0.297148
0.305915
0.314589
0.323013
0.331046
0.338576
0.345547
0.351909
0.357657
0.362803
0.367398
0.371468
0.375057
0.378214
0.380925
0.383297
0.385304
0.388127
0.151657
0.140441
0.139689
0.139356
0.139328
0.139269
0.139256
0.139254
0.139253
0.139253
0.139253
0.139252
0.139252
0.139252
0.139252
0.139252
0.139252
0.139253
0.139253
0.139256
0.139277
0.139356
0.139544
0.139955
0.142514
0.15725
0.230493
0.253715
0.26351
0.272143
0.28053
0.289029
0.297667
0.306367
0.31498
0.323332
0.331289
0.338759
0.345674
0.351988
0.357696
0.362811
0.367386
0.371454
0.375052
0.378227
0.380979
0.383384
0.385433
0.388035
0.168544
0.143886
0.141288
0.139864
0.139748
0.139451
0.139381
0.139376
0.139373
0.139372
0.13937
0.139369
0.139369
0.139368
0.139368
0.139368
0.139369
0.13937
0.139373
0.13938
0.13948
0.139838
0.140582
0.14221
0.150579
0.174899
0.228215
0.254359
0.264526
0.273152
0.28151
0.28995
0.298524
0.307171
0.315705
0.323993
0.331899
0.33931
0.34616
0.352427
0.358096
0.363193
0.367749
0.371806
0.375426
0.378617
0.381401
0.383907
0.386034
0.388369
0.178324
0.150961
0.145511
0.141909
0.141322
0.140191
0.139923
0.139903
0.139893
0.139886
0.139881
0.139878
0.139876
0.139874
0.139873
0.139873
0.139874
0.139878
0.139887
0.13991
0.14026
0.141604
0.143594
0.149236
0.162331
0.183528
0.227732
0.255155
0.265734
0.274364
0.282686
0.291077
0.299599
0.30817
0.316651
0.324878
0.332721
0.340075
0.346886
0.353109
0.358742
0.363812
0.368361
0.37242
0.376048
0.379256
0.382118
0.384769
0.386936
0.389054
0.18608
0.163525
0.151
0.147798
0.145196
0.142602
0.141985
0.141885
0.141826
0.141785
0.141757
0.141739
0.141726
0.141716
0.141709
0.141706
0.141709
0.141729
0.141778
0.141886
0.142645
0.146001
0.149549
0.157798
0.170036
0.18959
0.227924
0.256067
0.267036
0.275681
0.283963
0.292305
0.300775
0.309293
0.317723
0.325885
0.333671
0.340983
0.347745
0.353927
0.359539
0.364586
0.369128
0.373189
0.376817
0.380051
0.383043
0.385807
0.387976
0.389792
0.192435
0.172606
0.160872
0.154328
0.150122
0.148558
0.147758
0.147257
0.146931
0.146717
0.146579
0.14649
0.146428
0.146381
0.146347
0.146328
0.146343
0.146432
0.146678
0.14722
0.148214
0.150812
0.15814
0.165227
0.176613
0.19438
0.228513
0.257024
0.268375
0.277052
0.285306
0.293585
0.302002
0.310468
0.318835
0.326961
0.334691
0.34195
0.348666
0.354821
0.360414
0.365449
0.369976
0.374043
0.377659
0.380943
0.384047
0.38678
0.388769
0.390268
0.198034
0.179888
0.169182
0.162066
0.158222
0.155791
0.15406
0.152968
0.152311
0.151902
0.151649
0.151488
0.151377
0.151295
0.151233
0.151194
0.151211
0.15135
0.151779
0.152836
0.154837
0.158003
0.165395
0.172061
0.182506
0.198513
0.229395
0.258035
0.26973
0.278442
0.286654
0.294893
0.303256
0.31167
0.319987
0.328043
0.335741
0.342951
0.349635
0.355754
0.361319
0.366354
0.37087
0.374911
0.378516
0.38184
0.385018
0.387667
0.389333
0.390505
0.203093
0.186096
0.176185
0.169465
0.165733
0.162852
0.160857
0.159654
0.158945
0.158518
0.158251
0.15808
0.15796
0.157866
0.157789
0.157722
0.1577
0.157789
0.158155
0.159196
0.161444
0.165116
0.1718
0.178232
0.18786
0.202278
0.230495
0.259068
0.271091
0.279828
0.288009
0.296193
0.304501
0.312863
0.321119
0.32914
0.336785
0.343958
0.350601
0.356697
0.362245
0.367253
0.371743
0.375737
0.379348
0.38271
0.385933
0.388365
0.389715
0.390651
0.207709
0.191631
0.182234
0.17609
0.172373
0.169435
0.167504
0.16637
0.165702
0.165293
0.165031
0.164866
0.164746
0.16465
0.164558
0.16448
0.164428
0.164478
0.164763
0.165646
0.167728
0.171517
0.177539
0.183787
0.192734
0.205848
0.231779
0.260121
0.272436
0.28121
0.289346
0.297473
0.305726
0.314033
0.32224
0.330216
0.337808
0.344946
0.35156
0.357634
0.363161
0.36814
0.372577
0.376499
0.380101
0.383518
0.386734
0.388837
0.389935
0.390702
0.211938
0.196681
0.187631
0.181981
0.178262
0.17543
0.173652
0.172602
0.171975
0.171579
0.171322
0.171159
0.171035
0.170936
0.170847
0.170755
0.17069
0.170713
0.17095
0.171707
0.173542
0.177211
0.182764
0.188806
0.197183
0.209265
0.233196
0.261187
0.273754
0.282564
0.290654
0.298734
0.30694
0.315181
0.323338
0.331256
0.33882
0.345912
0.352496
0.358544
0.364031
0.368967
0.373312
0.377178
0.380782
0.384236
0.387337
0.389168
0.390057
0.390725
0.215824
0.201341
0.192554
0.187262
0.18358
0.180912
0.17926
0.178264
0.177655
0.177258
0.177008
0.176843
0.176713
0.176618
0.176519
0.176427
0.176355
0.176361
0.176575
0.177256
0.178885
0.182329
0.187573
0.193376
0.20126
0.212564
0.234745
0.262273
0.275061
0.283905
0.291946
0.299975
0.308109
0.316306
0.324412
0.332272
0.339783
0.34685
0.353391
0.359406
0.364852
0.369709
0.373959
0.377764
0.381382
0.384867
0.387839
0.389375
0.39013
0.390665
0.219417
0.205674
0.197124
0.192063
0.188464
0.185958
0.184385
0.183413
0.18281
0.182413
0.18216
0.181987
0.181865
0.181761
0.181659
0.181568
0.181492
0.181495
0.181688
0.18233
0.183835
0.187032
0.192045
0.197584
0.20503
0.215729
0.23638
0.263373
0.276344
0.285207
0.293218
0.301173
0.309256
0.317383
0.325436
0.333261
0.340717
0.347734
0.35425
0.360211
0.365595
0.370339
0.374476
0.378248
0.38189
0.385396
0.388194
0.389514
0.390134
0.390637
0.222772
0.209738
0.201411
0.196502
0.193011
0.190637
0.189108
0.188144
0.187531
0.187142
0.186882
0.186713
0.186589
0.186488
0.186386
0.186291
0.186214
0.186208
0.186391
0.187011
0.188428
0.191401
0.196221
0.201487
0.208537
0.218774
0.23808
0.264475
0.277608
0.286491
0.294443
0.30234
0.310357
0.318424
0.326422
0.334198
0.341608
0.348582
0.355042
0.360959
0.366252
0.370861
0.374893
0.378656
0.382312
0.385854
0.388384
0.389574
0.390154
0.390615
0.225917
0.213552
0.205439
0.20063
0.19727
0.194991
0.19349
0.192534
0.191919
0.191526
0.191272
0.191096
0.190975
0.190877
0.190774
0.190685
0.190604
0.190582
0.190751
0.191356
0.192722
0.19551
0.200149
0.205154
0.211848
0.221679
0.23985
0.265603
0.278852
0.287751
0.295651
0.303477
0.311425
0.319428
0.327369
0.33508
0.342454
0.349368
0.355785
0.361618
0.366787
0.371264
0.37522
0.378982
0.382649
0.386208
0.388573
0.389602
0.390095
0.390527
0.228886
0.21715
0.209255
0.204527
0.201277
0.199078
0.197595
0.196642
0.196027
0.195632
0.195385
0.195214
0.195097
0.194991
0.194901
0.194803
0.19472
0.194697
0.194847
0.195424
0.196747
0.199389
0.203841
0.208623
0.214992
0.224464
0.241641
0.266724
0.280066
0.288969
0.296821
0.304584
0.312458
0.320396
0.328276
0.335931
0.343239
0.350109
0.356447
0.362187
0.367221
0.371542
0.375454
0.379224
0.382912
0.38646
0.388653
0.389568
0.390069
0.390459
0.231729
0.22056
0.212884
0.20822
0.205084
0.202938
0.20146
0.200513
0.199912
0.199524
0.199276
0.199111
0.198986
0.198896
0.198799
0.198701
0.198616
0.198586
0.198721
0.199267
0.200555
0.203086
0.20735
0.211931
0.21801
0.22713
0.243476
0.26787
0.281264
0.290165
0.297966
0.30565
0.313447
0.321324
0.32913
0.336725
0.343973
0.350774
0.357037
0.362657
0.367533
0.371741
0.37561
0.379392
0.383092
0.386627
0.38868
0.389542
0.389979
0.390358
0.234467
0.223799
0.216341
0.21175
0.208715
0.206594
0.205137
0.204192
0.203595
0.203222
0.202979
0.202819
0.202699
0.2026
0.202511
0.202421
0.20233
0.202288
0.202409
0.20292
0.204172
0.206602
0.210688
0.215111
0.220933
0.229697
0.245321
0.26901
0.282436
0.291339
0.299073
0.306686
0.314403
0.322196
0.329944
0.337473
0.344655
0.351376
0.357539
0.363027
0.367741
0.371856
0.375706
0.379496
0.383206
0.386732
0.388659
0.389482
0.389884
0.390253
0.237122
0.226881
0.219639
0.215124
0.212175
0.210087
0.208644
0.207722
0.207131
0.206757
0.206522
0.206366
0.20625
0.206155
0.206063
0.205968
0.205881
0.205835
0.205938
0.206416
0.207615
0.209978
0.213887
0.218166
0.223766
0.232175
0.24717
0.270162
0.283593
0.292484
0.300156
0.307683
0.315315
0.323041
0.330704
0.338163
0.345272
0.351906
0.357972
0.363294
0.367856
0.371894
0.375745
0.379546
0.383254
0.386752
0.388557
0.38939
0.389813
0.390215
0.239698
0.229842
0.2228
0.218379
0.215491
0.213427
0.212006
0.211101
0.210525
0.210162
0.209921
0.20977
0.209657
0.209565
0.209476
0.209383
0.209295
0.209243
0.209328
0.209775
0.210917
0.213223
0.216962
0.221124
0.226519
0.234596
0.249029
0.271329
0.284727
0.293603
0.301205
0.308641
0.316195
0.323838
0.331423
0.338806
0.345834
0.352371
0.358308
0.363475
0.367887
0.371878
0.375714
0.379527
0.383254
0.386711
0.388495
0.389306
0.389677
0.390069
0.242217
0.232691
0.225833
0.221508
0.218678
0.216654
0.215255
0.214363
0.21379
0.213435
0.2132
0.213052
0.212942
0.212852
0.212765
0.212674
0.212586
0.21253
0.212601
0.21301
0.214105
0.216337
0.219922
0.223987
0.229212
0.236965
0.250895
0.272498
0.285849
0.294695
0.302231
0.309576
0.317043
0.324588
0.332102
0.339395
0.34633
0.352771
0.358564
0.363566
0.367866
0.371809
0.375637
0.379445
0.383201
0.386667
0.388413
0.389202
0.389588
0.389972
0.24467
0.235444
0.228761
0.224537
0.221753
0.219759
0.218385
0.217503
0.216954
0.216594
0.216362
0.216217
0.216109
0.216022
0.215937
0.215845
0.215748
0.215698
0.21576
0.216144
0.217189
0.219344
0.222798
0.226764
0.231828
0.239294
0.252752
0.273678
0.28695
0.29577
0.303225
0.310479
0.317841
0.325303
0.332729
0.33994
0.346771
0.353097
0.358733
0.363584
0.367787
0.371702
0.375512
0.379325
0.383092
0.386562
0.388263
0.389082
0.389472
0.389878
0.247072
0.238114
0.231602
0.227465
0.224733
0.222761
0.221422
0.220559
0.220007
0.219652
0.219423
0.21928
0.219173
0.219076
0.218994
0.218906
0.21882
0.218759
0.218821
0.219184
0.220173
0.22226
0.225591
0.229463
0.234368
0.241589
0.254596
0.274851
0.288041
0.296816
0.304198
0.31135
0.31862
0.325985
0.333305
0.340421
0.347158
0.353359
0.358835
0.363531
0.367666
0.371544
0.375351
0.37917
0.38294
0.38641
0.388186
0.388939
0.389334
0.38976
0.249395
0.240711
0.234348
0.230314
0.227608
0.225683
0.224365
0.223517
0.222962
0.222618
0.222389
0.222241
0.222136
0.22205
0.22196
0.221875
0.221789
0.221727
0.221782
0.222124
0.22307
0.225087
0.228312
0.232078
0.236846
0.243851
0.256447
0.276044
0.289113
0.297848
0.305142
0.312198
0.319361
0.326623
0.333857
0.340863
0.347494
0.353547
0.358876
0.363432
0.367498
0.371352
0.375153
0.378965
0.382754
0.386195
0.388029
0.388806
0.389204
0.389592
0.251663
0.243231
0.237016
0.233071
0.230413
0.228524
0.227226
0.226388
0.225837
0.225489
0.225264
0.225111
0.225008
0.224926
0.224847
0.224753
0.224668
0.224606
0.224654
0.224991
0.225897
0.227825
0.230956
0.23464
0.239265
0.246078
0.258277
0.277236
0.290177
0.298853
0.306068
0.313014
0.320064
0.32723
0.334349
0.341258
0.347772
0.353691
0.358852
0.3633
0.367295
0.371125
0.374917
0.378725
0.38252
0.386038
0.387859
0.388666
0.389043
0.389475
0.253872
0.245678
0.239626
0.235754
0.233135
0.231292
0.230016
0.22918
0.228633
0.228287
0.228064
0.227913
0.227811
0.227718
0.227642
0.22756
0.227476
0.227414
0.227458
0.22778
0.228651
0.230507
0.233542
0.237119
0.24162
0.24827
0.260095
0.278424
0.291223
0.299846
0.306967
0.313811
0.320744
0.327797
0.334818
0.341617
0.347994
0.353772
0.358791
0.363128
0.367081
0.370883
0.374652
0.378456
0.382258
0.385808
0.387671
0.388502
0.388913
0.38933
0.255999
0.248068
0.242166
0.23836
0.235793
0.23398
0.232727
0.231887
0.231357
0.231002
0.23078
0.230631
0.23053
0.230452
0.230366
0.230286
0.230205
0.230141
0.230179
0.230486
0.231336
0.233119
0.236074
0.239551
0.243918
0.250427
0.261888
0.279618
0.292263
0.300815
0.307852
0.314578
0.321402
0.328338
0.335244
0.341926
0.348176
0.353804
0.358675
0.362931
0.366834
0.370612
0.37437
0.378167
0.381976
0.385537
0.387493
0.388339
0.388755
0.389186
0.258071
0.250391
0.244639
0.240915
0.238393
0.236608
0.235373
0.234543
0.234006
0.233665
0.233434
0.233287
0.233188
0.233111
0.233029
0.23295
0.23287
0.232805
0.232838
0.233142
0.233961
0.235679
0.238544
0.241929
0.246168
0.252535
0.263664
0.280819
0.293287
0.301775
0.308712
0.31533
0.322028
0.328842
0.335629
0.342201
0.348319
0.353798
0.358541
0.362702
0.366577
0.370325
0.374071
0.37785
0.381662
0.385262
0.387248
0.388165
0.38861
0.388803
0.260081
0.252662
0.247062
0.243398
0.240929
0.239178
0.237949
0.237128
0.236597
0.236261
0.236033
0.235887
0.23579
0.235716
0.235634
0.235559
0.235471
0.235415
0.235441
0.235729
0.236519
0.238179
0.240955
0.244261
0.248376
0.254603
0.265423
0.282015
0.294307
0.302714
0.309562
0.316056
0.322636
0.329324
0.336
0.342433
0.348427
0.35376
0.358377
0.362463
0.366288
0.370026
0.373747
0.377514
0.381328
0.38495
0.387066
0.387984
0.38845
0.388888
0.262037
0.254872
0.249424
0.24584
0.243415
0.241691
0.240473
0.239663
0.239139
0.238796
0.238582
0.238439
0.238332
0.23826
0.238181
0.238108
0.238031
0.237964
0.237984
0.238255
0.239028
0.240638
0.243322
0.246546
0.250551
0.256635
0.267166
0.283204
0.295326
0.303647
0.310391
0.31677
0.323216
0.329787
0.336325
0.342639
0.348493
0.353697
0.358203
0.362222
0.366011
0.369713
0.373415
0.377165
0.380965
0.384621
0.38683
0.387792
0.388213
0.388728
0.263949
0.257027
0.251742
0.248218
0.245844
0.244143
0.242946
0.242141
0.241625
0.241287
0.241073
0.240925
0.240831
0.240761
0.240684
0.240613
0.240526
0.240471
0.240485
0.240737
0.24149
0.243044
0.245638
0.24879
0.252707
0.258635
0.268882
0.284411
0.296332
0.304574
0.311213
0.317463
0.323783
0.330219
0.336641
0.342824
0.348537
0.353604
0.358009
0.361969
0.365724
0.369402
0.373084
0.376803
0.380591
0.384275
0.386594
0.3876
0.388114
0.388586
0.265825
0.259129
0.254004
0.250556
0.248231
0.246546
0.245363
0.24458
0.24406
0.243727
0.24352
0.243381
0.243278
0.24321
0.243135
0.243067
0.242992
0.242926
0.242936
0.243182
0.243889
0.245404
0.24792
0.250996
0.254822
0.260608
0.270582
0.285613
0.297339
0.305486
0.31203
0.318154
0.324337
0.330637
0.336927
0.34298
0.348562
0.353497
0.35781
0.361717
0.36544
0.369094
0.372743
0.37644
0.380211
0.38392
0.386348
0.387411
0.387933
0.388422
0.267684
0.261195
0.256215
0.252847
0.250566
0.248911
0.247748
0.24697
0.246459
0.24613
0.245924
0.245777
0.245688
0.245614
0.245549
0.245479
0.2454
0.245334
0.245351
0.245569
0.246263
0.247726
0.250147
0.253175
0.256919
0.262556
0.272267
0.28681
0.298335
0.306396
0.312831
0.318828
0.324875
0.331042
0.337196
0.343127
0.348569
0.35338
0.35761
0.361468
0.365149
0.368779
0.372405
0.376068
0.379818
0.383549
0.386091
0.387206
0.387523
0.3882
0.269506
0.26322
0.258391
0.255103
0.252854
0.25123
0.250082
0.249315
0.248812
0.248487
0.248286
0.248139
0.248051
0.247975
0.247916
0.247841
0.247772
0.247707
0.247722
0.247926
0.248583
0.250006
0.252347
0.255307
0.258973
0.264481
0.273938
0.288024
0.299343
0.307304
0.31363
0.319505
0.325404
0.331425
0.337452
0.34325
0.348564
0.353253
0.357402
0.361212
0.364863
0.368457
0.372059
0.375698
0.379425
0.38316
0.385815
0.387
0.387584
0.3881
0.271314
0.265205
0.260512
0.257315
0.255096
0.253506
0.252382
0.251629
0.251133
0.250812
0.250601
0.250467
0.250369
0.250306
0.250238
0.250177
0.250099
0.250045
0.250049
0.250254
0.250876
0.252248
0.254513
0.257414
0.261003
0.266384
0.275594
0.28923
0.300334
0.308199
0.314428
0.320169
0.325919
0.331801
0.337686
0.34335
0.348547
0.353127
0.357202
0.360968
0.364588
0.368155
0.371721
0.375332
0.379022
0.382775
0.385534
0.386791
0.387328
0.387936
0.273094
0.267168
0.262613
0.259486
0.25731
0.255743
0.254643
0.253902
0.253412
0.253084
0.252885
0.252741
0.252656
0.252583
0.252529
0.252459
0.252395
0.252333
0.252346
0.252541
0.253132
0.254455
0.25666
0.259487
0.262999
0.268264
0.277236
0.290439
0.301336
0.309095
0.315216
0.320833
0.326445
0.332175
0.337915
0.343453
0.348515
0.353007
0.357016
0.36074
0.364317
0.367857
0.371393
0.374975
0.378634
0.382377
0.38527
0.386558
0.38723
0.387769
0.274856
0.269087
0.264668
0.261617
0.259485
0.257955
0.256865
0.256135
0.25565
0.25533
0.255129
0.254986
0.254902
0.254831
0.254779
0.254711
0.25465
0.25459
0.254604
0.254788
0.255355
0.256631
0.258765
0.261526
0.264962
0.27012
0.27885
0.291641
0.302341
0.309992
0.316017
0.321494
0.326961
0.332547
0.338138
0.343541
0.348495
0.352884
0.356845
0.360518
0.364077
0.367576
0.371081
0.374619
0.378243
0.381976
0.384969
0.386362
0.38703
0.387593
0.276587
0.270985
0.266692
0.263711
0.261627
0.260132
0.259061
0.25833
0.257851
0.257539
0.257334
0.257205
0.257111
0.25705
0.256991
0.256926
0.256868
0.25681
0.256823
0.257008
0.257553
0.258775
0.260854
0.263535
0.266895
0.271952
0.280461
0.292854
0.303336
0.310888
0.316804
0.32216
0.32748
0.332909
0.338362
0.343628
0.348465
0.352782
0.356677
0.360314
0.363839
0.367314
0.370778
0.374282
0.377866
0.381576
0.384667
0.386153
0.386882
0.387369
0.278284
0.272852
0.268692
0.265783
0.263747
0.262274
0.261223
0.260501
0.260027
0.259707
0.259511
0.259377
0.259297
0.259229
0.259169
0.259118
0.259051
0.258997
0.259007
0.259188
0.259718
0.26089
0.262903
0.265527
0.268801
0.27376
0.282044
0.294057
0.304334
0.31178
0.317594
0.322826
0.328001
0.333275
0.338588
0.343717
0.34844
0.352679
0.356524
0.360127
0.363618
0.36706
0.370505
0.373962
0.377506
0.381174
0.384357
0.385915
0.3867
0.387266
0.279964
0.2747
0.270664
0.267823
0.265826
0.264384
0.26335
0.262638
0.262171
0.261856
0.261656
0.26153
0.26144
0.261385
0.261328
0.26127
0.261215
0.26116
0.261171
0.261346
0.26186
0.262979
0.264938
0.267484
0.270687
0.275546
0.283611
0.295261
0.305334
0.312673
0.318395
0.323498
0.328525
0.333648
0.338807
0.343809
0.348421
0.352585
0.356384
0.359958
0.363422
0.366826
0.370242
0.373664
0.377153
0.380792
0.384062
0.385722
0.386536
0.387111
0.281605
0.276507
0.27262
0.269834
0.267888
0.266475
0.265446
0.264746
0.264286
0.263976
0.263779
0.263656
0.263568
0.263515
0.263459
0.263402
0.263352
0.263298
0.263306
0.263475
0.263974
0.265055
0.266948
0.269432
0.272557
0.277312
0.285177
0.296465
0.306338
0.313568
0.319191
0.324179
0.329055
0.334027
0.339043
0.343895
0.348409
0.352501
0.356259
0.359804
0.363232
0.366615
0.36999
0.373384
0.37683
0.380413
0.383744
0.385501
0.386362
0.386954
0.283231
0.278297
0.274537
0.271833
0.269923
0.268525
0.267526
0.266839
0.266376
0.266083
0.26589
0.265758
0.265682
0.26562
0.265567
0.265524
0.265464
0.265412
0.265417
0.265576
0.266072
0.26711
0.268942
0.271362
0.274425
0.279061
0.286717
0.297671
0.307346
0.314468
0.320004
0.324869
0.329607
0.334417
0.339275
0.343999
0.348405
0.352429
0.356135
0.359653
0.363059
0.366417
0.36976
0.373114
0.376518
0.38005
0.383428
0.385311
0.386198
0.386802
0.284827
0.280072
0.276439
0.273796
0.271934
0.270568
0.269581
0.268898
0.268455
0.268156
0.267967
0.267849
0.267764
0.267712
0.267664
0.267612
0.267555
0.267517
0.26751
0.267667
0.268144
0.269144
0.270903
0.273275
0.27627
0.280796
0.288259
0.298879
0.308345
0.315372
0.320811
0.325556
0.330159
0.334807
0.339516
0.344109
0.348411
0.352366
0.356034
0.359529
0.362912
0.366235
0.369553
0.372874
0.376224
0.379705
0.38312
0.385042
0.386047
0.386662
0.286423
0.28182
0.278319
0.275751
0.27393
0.272584
0.271615
0.270948
0.270515
0.270222
0.270037
0.269921
0.269838
0.269779
0.269739
0.269693
0.269639
0.26959
0.269591
0.269738
0.270191
0.27116
0.272857
0.275174
0.278115
0.28253
0.289778
0.300088
0.309361
0.316279
0.321624
0.326264
0.330724
0.335222
0.33977
0.344224
0.348416
0.352305
0.355946
0.359407
0.362772
0.366071
0.36936
0.372642
0.375951
0.379376
0.382823
0.384869
0.385893
0.386527
0.288026
0.28356
0.280177
0.277687
0.275905
0.274577
0.273631
0.27299
0.272557
0.27227
0.272088
0.271975
0.271893
0.271836
0.271798
0.271754
0.271704
0.271658
0.271658
0.271793
0.272228
0.273171
0.274795
0.27706
0.279947
0.284241
0.291301
0.3013
0.31038
0.31719
0.322443
0.32697
0.331301
0.335641
0.340039
0.344349
0.348445
0.352266
0.355858
0.359295
0.362643
0.365923
0.36918
0.372426
0.375709
0.379068
0.382518
0.384697
0.385739
0.386391
0.289618
0.285288
0.282029
0.279617
0.277862
0.276564
0.275644
0.275007
0.274583
0.274313
0.274129
0.274011
0.273931
0.273887
0.273843
0.273798
0.273751
0.273718
0.273709
0.273834
0.274244
0.275153
0.27672
0.27894
0.281765
0.285954
0.292815
0.302522
0.311396
0.318104
0.323266
0.327695
0.33189
0.336086
0.340324
0.344501
0.348488
0.352239
0.355789
0.359204
0.362522
0.365785
0.369019
0.372239
0.375472
0.378777
0.38222
0.384553
0.385485
0.386267
0.291227
0.287008
0.283868
0.281519
0.279802
0.278538
0.277643
0.277022
0.276606
0.276328
0.276152
0.276043
0.275964
0.27591
0.275867
0.275838
0.275794
0.275757
0.275759
0.275876
0.276259
0.277133
0.278647
0.280808
0.283567
0.287657
0.294323
0.303734
0.312413
0.31902
0.324106
0.328418
0.332492
0.336546
0.340626
0.344659
0.348534
0.352213
0.355731
0.359109
0.362411
0.365657
0.368864
0.372051
0.37525
0.378509
0.381925
0.384384
0.385378
0.386145
0.292836
0.288736
0.285696
0.283419
0.28174
0.280513
0.279631
0.279023
0.278614
0.278341
0.278167
0.278059
0.277982
0.27793
0.277889
0.277852
0.277822
0.277789
0.277795
0.277896
0.278265
0.279113
0.280568
0.282664
0.285366
0.289351
0.295826
0.304946
0.313439
0.319947
0.324938
0.32916
0.333107
0.337013
0.340947
0.344846
0.348608
0.352209
0.355672
0.359032
0.362317
0.365538
0.368722
0.371888
0.37504
0.378253
0.38164
0.384213
0.385354
0.38605
0.294467
0.290462
0.287517
0.285308
0.28367
0.282475
0.28162
0.281017
0.280609
0.280352
0.280169
0.280063
0.279987
0.279936
0.279901
0.279872
0.279836
0.279808
0.279819
0.279929
0.280264
0.281071
0.282483
0.28451
0.287141
0.291038
0.297323
0.306171
0.314475
0.32087
0.325778
0.32991
0.333734
0.337507
0.341287
0.345054
0.348701
0.352223
0.355635
0.358965
0.362216
0.365422
0.368589
0.371736
0.374855
0.378009
0.381347
0.384041
0.385251
0.385954
0.296097
0.292187
0.289345
0.287199
0.285593
0.284434
0.283589
0.283001
0.282605
0.28234
0.282172
0.282056
0.281994
0.281944
0.281906
0.281872
0.281839
0.28182
0.281832
0.281942
0.282269
0.283034
0.284397
0.28636
0.288931
0.292731
0.298829
0.307397
0.315507
0.321793
0.326626
0.330668
0.334374
0.338018
0.341658
0.34527
0.348813
0.352264
0.355619
0.358906
0.362135
0.365324
0.36848
0.371592
0.374681
0.377785
0.381068
0.383865
0.385144
0.385859
0.297742
0.293924
0.291172
0.289083
0.287525
0.286392
0.28557
0.284982
0.284593
0.284332
0.284167
0.284054
0.283993
0.283945
0.283909
0.283877
0.283847
0.283827
0.283848
0.28396
0.284272
0.284996
0.286308
0.288208
0.29071
0.294421
0.300329
0.308626
0.316546
0.322731
0.327484
0.331434
0.335038
0.338546
0.342037
0.345519
0.348957
0.35231
0.355608
0.358857
0.362063
0.365235
0.368367
0.37146
0.374519
0.377584
0.380784
0.3837
0.385056
0.385791
0.299391
0.295663
0.293004
0.290965
0.289454
0.28835
0.287534
0.286969
0.286581
0.286333
0.28616
0.286061
0.28599
0.285944
0.28591
0.28588
0.285857
0.285846
0.285858
0.285973
0.286274
0.286963
0.28823
0.290064
0.292502
0.296111
0.301838
0.309859
0.317588
0.323673
0.328348
0.33221
0.335715
0.33909
0.342448
0.345801
0.34911
0.352386
0.355623
0.358819
0.361997
0.36515
0.368262
0.371336
0.374374
0.37739
0.380532
0.38354
0.38497
0.385718
0.301044
0.297403
0.294835
0.292858
0.291384
0.290309
0.289507
0.288953
0.28857
0.288322
0.288165
0.288058
0.288001
0.287956
0.287924
0.287896
0.287869
0.287854
0.287879
0.287995
0.288287
0.288936
0.290164
0.291925
0.294303
0.297816
0.303345
0.31111
0.318654
0.324633
0.329232
0.333008
0.336406
0.339656
0.34288
0.346095
0.349298
0.352484
0.355656
0.358802
0.361947
0.365066
0.368162
0.371223
0.37424
0.377211
0.380284
0.383359
0.384885
0.385658
0.302719
0.29916
0.296684
0.294755
0.293329
0.292266
0.291485
0.290941
0.29057
0.29033
0.290177
0.290072
0.290018
0.289974
0.289943
0.289917
0.289892
0.289878
0.289903
0.290017
0.290303
0.290915
0.292088
0.293801
0.296115
0.299528
0.30487
0.312369
0.319717
0.325589
0.330124
0.333818
0.337111
0.340244
0.343344
0.346426
0.349511
0.352604
0.355707
0.358814
0.36191
0.365001
0.368083
0.371126
0.374114
0.377059
0.380057
0.383167
0.38479
0.385608
0.304407
0.300925
0.298535
0.29666
0.295277
0.294237
0.293469
0.292947
0.292587
0.292355
0.292209
0.292107
0.292043
0.292002
0.291972
0.29195
0.291936
0.291922
0.291934
0.292044
0.292334
0.292914
0.294033
0.2957
0.297952
0.301249
0.306403
0.313638
0.320801
0.326577
0.331025
0.334649
0.337844
0.340865
0.343823
0.346782
0.349761
0.352758
0.355787
0.358831
0.361899
0.36495
0.368013
0.371035
0.374008
0.376923
0.379851
0.382965
0.384734
0.385562
0.306127
0.302712
0.300402
0.298586
0.297232
0.296214
0.295475
0.294965
0.294619
0.294395
0.294252
0.294154
0.294092
0.294052
0.294024
0.294001
0.293981
0.293971
0.293987
0.294091
0.294372
0.294925
0.295991
0.297611
0.299802
0.302994
0.307959
0.314931
0.321908
0.327564
0.331949
0.335485
0.338593
0.341498
0.344335
0.347176
0.350038
0.352938
0.35589
0.358885
0.361904
0.364923
0.367945
0.370958
0.373914
0.376791
0.379665
0.382759
0.384664
0.385531
0.307871
0.304516
0.302292
0.300525
0.299209
0.298214
0.297493
0.296999
0.296678
0.296451
0.296311
0.296215
0.296159
0.296127
0.296101
0.29608
0.296061
0.296049
0.296067
0.296164
0.296421
0.296962
0.297966
0.299535
0.301676
0.304754
0.30953
0.316239
0.323027
0.328573
0.332886
0.336358
0.339372
0.342163
0.344885
0.347598
0.350345
0.353158
0.35603
0.358953
0.361921
0.364915
0.367903
0.370885
0.373824
0.376693
0.379515
0.382538
0.384597
0.385501
0.309657
0.306352
0.304197
0.302492
0.30121
0.300242
0.299538
0.299064
0.298753
0.298532
0.298397
0.298303
0.298243
0.298216
0.298193
0.298174
0.298157
0.298147
0.29816
0.298253
0.298496
0.299014
0.299972
0.301486
0.303562
0.306544
0.311132
0.317576
0.324161
0.329608
0.333848
0.337248
0.340172
0.342865
0.345463
0.348052
0.350694
0.353407
0.356196
0.359061
0.36197
0.364916
0.367872
0.370816
0.373739
0.376594
0.379367
0.382326
0.384493
0.385466
0.31148
0.308221
0.30613
0.304478
0.303228
0.302291
0.301616
0.301161
0.300848
0.300643
0.300507
0.30042
0.300362
0.300326
0.300303
0.300285
0.300272
0.300264
0.300283
0.300364
0.300603
0.301098
0.302
0.303461
0.305475
0.308354
0.312763
0.318947
0.325324
0.33066
0.334827
0.338157
0.341007
0.343594
0.346084
0.348563
0.35109
0.353699
0.356399
0.359194
0.362037
0.364943
0.367861
0.370783
0.373687
0.376512
0.379244
0.382108
0.384456
0.385329
0.313355
0.310123
0.308098
0.306498
0.305281
0.304367
0.303731
0.303281
0.302978
0.302775
0.302647
0.302556
0.3025
0.302465
0.302443
0.302428
0.302417
0.302414
0.302434
0.30251
0.302733
0.303215
0.304068
0.305467
0.307418
0.310202
0.314429
0.320346
0.326522
0.331751
0.335839
0.339112
0.341869
0.344366
0.346741
0.3491
0.351524
0.354028
0.356649
0.359355
0.362149
0.364994
0.367878
0.370763
0.373634
0.376447
0.379146
0.381907
0.384389
0.385434
0.315272
0.312078
0.310104
0.308556
0.307361
0.306483
0.305874
0.305437
0.305139
0.304942
0.304816
0.304728
0.304673
0.304639
0.304619
0.304606
0.304598
0.304599
0.304623
0.304696
0.304902
0.305359
0.306168
0.307506
0.309387
0.312089
0.316139
0.321791
0.327761
0.332861
0.336891
0.340098
0.342783
0.345185
0.347449
0.349703
0.352014
0.354411
0.356936
0.35957
0.362296
0.365086
0.367913
0.370761
0.373598
0.376403
0.379065
0.381727
0.384306
0.385428
0.317241
0.314072
0.312145
0.310645
0.309486
0.308643
0.308046
0.307633
0.307341
0.307148
0.307013
0.306932
0.306885
0.306852
0.306833
0.306822
0.306817
0.306822
0.306839
0.306923
0.307115
0.307546
0.308315
0.30958
0.3114
0.314025
0.317904
0.323288
0.329038
0.334029
0.337988
0.341122
0.343742
0.346046
0.348214
0.350355
0.352552
0.354857
0.357277
0.359824
0.362472
0.365199
0.367976
0.37078
0.373583
0.376363
0.378996
0.38158
0.384221
0.385414
0.319254
0.316118
0.314247
0.31278
0.311658
0.310851
0.310274
0.309868
0.309585
0.309384
0.309265
0.309181
0.309129
0.309098
0.30908
0.30907
0.309067
0.309076
0.309109
0.309183
0.309364
0.309767
0.31051
0.311716
0.313467
0.316001
0.319716
0.324838
0.330388
0.335255
0.339131
0.342211
0.34475
0.346966
0.349042
0.351073
0.353169
0.35536
0.357692
0.360144
0.362708
0.365358
0.368082
0.370837
0.373605
0.376336
0.378969
0.381463
0.384107
0.385407
0.321322
0.318217
0.316389
0.314968
0.313881
0.313107
0.312548
0.312142
0.311864
0.311681
0.311554
0.311473
0.311434
0.311405
0.311388
0.31138
0.311378
0.311383
0.311413
0.31149
0.311674
0.31205
0.312756
0.313897
0.315586
0.318033
0.321591
0.326465
0.331798
0.336538
0.34035
0.343365
0.345821
0.347965
0.34993
0.351875
0.35386
0.355939
0.358164
0.360516
0.362996
0.365578
0.368236
0.370942
0.373656
0.376354
0.378953
0.381382
0.384016
0.385395
0.323443
0.32037
0.318584
0.317208
0.316158
0.315402
0.314859
0.314475
0.314205
0.314018
0.313908
0.313831
0.313784
0.313755
0.313739
0.313731
0.313731
0.313742
0.31378
0.313859
0.314025
0.314386
0.315055
0.316139
0.317767
0.320137
0.323533
0.328172
0.333291
0.337911
0.341645
0.344583
0.346971
0.349027
0.350904
0.352746
0.354621
0.3566
0.358714
0.360973
0.363356
0.365855
0.368442
0.371075
0.373747
0.376406
0.378968
0.381334
0.383926
0.385383
0.325602
0.322578
0.320835
0.319499
0.31849
0.317762
0.317234
0.316851
0.316591
0.316424
0.316309
0.316237
0.316201
0.316174
0.316159
0.316152
0.316152
0.316156
0.316189
0.316268
0.316441
0.316774
0.31741
0.318453
0.320016
0.32229
0.325556
0.329962