/*--------------------------------*- C++ -*----------------------------------*\
| =========                 |                                                 |
| \\      /  F ield         | OpenFOAM: The Open Source CFD Toolbox           |
|  \\    /   O peration     | Version:  v1912                                 |
|   \\  /    A nd           | Website:  www.openfoam.com                      |
|    \\/     M anipulation  |                                                 |
\*---------------------------------------------------------------------------*/
FoamFile
{
    version     2.0;
    format      ascii;
    class       volScalarField;
    location    "31536000";
    object      theta;
}
// * * * * * * * * * * * * * * * * * * * * * * * * * * * * * * * * * * * * * //

dimensions      [0 0 0 0 0 0 0];


internalField   nonuniform List<scalar> 
4250
(
0.149957
0.149245
0.14924
0.149231
0.149229
0.149228
0.149228
0.149228
0.149228
0.149228
0.149227
0.149227
0.149227
0.149227
0.149227
0.149227
0.149227
0.149227
0.149228
0.149228
0.149228
0.149231
0.149239
0.149265
0.149469
0.153049
0.252403
0.263215
0.272598
0.28126
0.289745
0.298339
0.307105
0.315939
0.324687
0.333174
0.341273
0.348866
0.355881
0.362293
0.368084
0.373263
0.377873
0.381944
0.385538
0.388666
0.391351
0.393676
0.395691
0.398764
0.152208
0.149434
0.149306
0.149248
0.149242
0.149232
0.14923
0.14923
0.14923
0.14923
0.149229
0.149229
0.149229
0.149229
0.149229
0.149229
0.149229
0.149229
0.14923
0.14923
0.149234
0.149249
0.149287
0.149388
0.150075
0.158585
0.245258
0.263305
0.272818
0.281452
0.2899
0.298446
0.307148
0.315915
0.324589
0.333013
0.341046
0.348576
0.355547
0.361909
0.367657
0.372803
0.377398
0.381468
0.385057
0.388214
0.390925
0.393297
0.395304
0.398127
0.161657
0.150441
0.149689
0.149356
0.149328
0.149269
0.149256
0.149254
0.149253
0.149253
0.149253
0.149252
0.149252
0.149252
0.149252
0.149252
0.149252
0.149253
0.149253
0.149256
0.149277
0.149356
0.149544
0.149955
0.152514
0.16725
0.240493
0.263715
0.27351
0.282143
0.29053
0.299029
0.307667
0.316367
0.32498
0.333332
0.341289
0.348759
0.355674
0.361988
0.367696
0.372811
0.377386
0.381454
0.385052
0.388227
0.390979
0.393384
0.395433
0.398035
0.178544
0.153886
0.151288
0.149864
0.149748
0.149451
0.149381
0.149376
0.149373
0.149372
0.14937
0.149369
0.149369
0.149368
0.149368
0.149368
0.149369
0.14937
0.149373
0.14938
0.14948
0.149838
0.150582
0.15221
0.160579
0.184899
0.238215
0.264359
0.274526
0.283152
0.29151
0.29995
0.308524
0.317171
0.325705
0.333993
0.341899
0.34931
0.35616
0.362427
0.368096
0.373193
0.377749
0.381806
0.385426
0.388617
0.391401
0.393907
0.396034
0.398369
0.188324
0.160961
0.155511
0.151909
0.151322
0.150191
0.149923
0.149903
0.149893
0.149886
0.149881
0.149878
0.149876
0.149874
0.149873
0.149873
0.149874
0.149878
0.149887
0.14991
0.15026
0.151604
0.153594
0.159236
0.172331
0.193528
0.237732
0.265155
0.275734
0.284364
0.292686
0.301077
0.309599
0.31817
0.326651
0.334878
0.342721
0.350075
0.356886
0.363109
0.368742
0.373812
0.378361
0.38242
0.386048
0.389256
0.392118
0.394769
0.396936
0.399054
0.19608
0.173525
0.161
0.157798
0.155196
0.152602
0.151985
0.151885
0.151826
0.151785
0.151757
0.151739
0.151726
0.151716
0.151709
0.151706
0.151709
0.151729
0.151778
0.151886
0.152645
0.156001
0.159549
0.167798
0.180036
0.19959
0.237924
0.266067
0.277036
0.285681
0.293963
0.302305
0.310775
0.319293
0.327723
0.335885
0.343671
0.350983
0.357745
0.363927
0.369539
0.374586
0.379128
0.383189
0.386817
0.390051
0.393043
0.395807
0.397976
0.399792
0.202435
0.182606
0.170872
0.164328
0.160122
0.158558
0.157758
0.157257
0.156931
0.156717
0.156579
0.15649
0.156428
0.156381
0.156347
0.156328
0.156343
0.156432
0.156678
0.15722
0.158214
0.160812
0.16814
0.175227
0.186613
0.20438
0.238513
0.267024
0.278375
0.287052
0.295306
0.303585
0.312002
0.320468
0.328835
0.336961
0.344691
0.35195
0.358666
0.364821
0.370414
0.375449
0.379976
0.384043
0.387659
0.390943
0.394047
0.39678
0.398769
0.400268
0.208034
0.189888
0.179182
0.172066
0.168222
0.165791
0.16406
0.162968
0.162311
0.161902
0.161649
0.161488
0.161377
0.161295
0.161233
0.161194
0.161211
0.16135
0.161779
0.162836
0.164837
0.168003
0.175395
0.182061
0.192506
0.208513
0.239395
0.268035
0.27973
0.288442
0.296654
0.304893
0.313256
0.32167
0.329987
0.338043
0.345741
0.352951
0.359635
0.365754
0.371319
0.376354
0.38087
0.384911
0.388516
0.39184
0.395018
0.397667
0.399333
0.400505
0.213093
0.196096
0.186185
0.179465
0.175733
0.172852
0.170857
0.169654
0.168945
0.168518
0.168251
0.16808
0.16796
0.167866
0.167789
0.167722
0.1677
0.167789
0.168155
0.169196
0.171444
0.175116
0.1818
0.188232
0.19786
0.212278
0.240495
0.269068
0.281091
0.289828
0.298009
0.306193
0.314501
0.322863
0.331119
0.33914
0.346785
0.353958
0.360601
0.366697
0.372245
0.377253
0.381743
0.385737
0.389348
0.39271
0.395933
0.398365
0.399715
0.400651
0.217709
0.201631
0.192234
0.18609
0.182373
0.179435
0.177504
0.17637
0.175702
0.175293
0.175031
0.174866
0.174746
0.17465
0.174558
0.17448
0.174428
0.174478
0.174763
0.175646
0.177728
0.181517
0.187539
0.193787
0.202734
0.215848
0.241779
0.270121
0.282436
0.29121
0.299346
0.307473
0.315726
0.324033
0.33224
0.340216
0.347808
0.354946
0.36156
0.367634
0.373161
0.37814
0.382577
0.386499
0.390101
0.393518
0.396734
0.398837
0.399935
0.400702
0.221938
0.206681
0.197631
0.191981
0.188262
0.18543
0.183652
0.182602
0.181975
0.181579
0.181322
0.181159
0.181035
0.180936
0.180847
0.180755
0.18069
0.180713
0.18095
0.181707
0.183542
0.187211
0.192764
0.198806
0.207183
0.219265
0.243196
0.271187
0.283754
0.292564
0.300654
0.308734
0.31694
0.325181
0.333338
0.341256
0.34882
0.355912
0.362496
0.368544
0.374031
0.378967
0.383312
0.387178
0.390782
0.394236
0.397337
0.399168
0.400057
0.400725
0.225824
0.211341
0.202554
0.197262
0.19358
0.190912
0.18926
0.188264
0.187655
0.187258
0.187008
0.186843
0.186713
0.186618
0.186519
0.186427
0.186355
0.186361
0.186575
0.187256
0.188885
0.192329
0.197573
0.203376
0.21126
0.222564
0.244745
0.272273
0.285061
0.293905
0.301946
0.309975
0.318109
0.326306
0.334412
0.342272
0.349783
0.35685
0.363391
0.369406
0.374852
0.379709
0.383959
0.387764
0.391382
0.394867
0.397839
0.399375
0.40013
0.400665
0.229417
0.215674
0.207124
0.202063
0.198464
0.195958
0.194385
0.193413
0.19281
0.192413
0.19216
0.191987
0.191865
0.191761
0.191659
0.191568
0.191492
0.191495
0.191688
0.19233
0.193835
0.197032
0.202045
0.207584
0.21503
0.225729
0.24638
0.273373
0.286344
0.295207
0.303218
0.311173
0.319256
0.327383
0.335436
0.343261
0.350717
0.357734
0.36425
0.370211
0.375595
0.380339
0.384476
0.388248
0.39189
0.395396
0.398194
0.399514
0.400134
0.400637
0.232772
0.219738
0.211411
0.206502
0.203011
0.200637
0.199108
0.198144
0.197531
0.197142
0.196882
0.196713
0.196589
0.196488
0.196386
0.196291
0.196214
0.196208
0.196391
0.197011
0.198428
0.201401
0.206221
0.211487
0.218537
0.228774
0.24808
0.274475
0.287608
0.296491
0.304443
0.31234
0.320357
0.328424
0.336422
0.344198
0.351608
0.358582
0.365042
0.370959
0.376252
0.380861
0.384893
0.388656
0.392312
0.395854
0.398384
0.399574
0.400154
0.400615
0.235917
0.223552
0.215439
0.21063
0.20727
0.204991
0.20349
0.202534
0.201919
0.201526
0.201272
0.201096
0.200975
0.200877
0.200774
0.200685
0.200604
0.200582
0.200751
0.201356
0.202722
0.20551
0.210149
0.215154
0.221848
0.231679
0.24985
0.275603
0.288852
0.297751
0.305651
0.313477
0.321425
0.329428
0.337369
0.34508
0.352454
0.359368
0.365785
0.371618
0.376787
0.381264
0.38522
0.388982
0.392649
0.396208
0.398573
0.399602
0.400095
0.400527
0.238886
0.22715
0.219255
0.214527
0.211277
0.209078
0.207595
0.206642
0.206027
0.205632
0.205385
0.205214
0.205097
0.204991
0.204901
0.204803
0.20472
0.204697
0.204847
0.205424
0.206747
0.209389
0.213841
0.218623
0.224992
0.234464
0.251641
0.276724
0.290066
0.298969
0.306821
0.314584
0.322458
0.330396
0.338276
0.345931
0.353239
0.360109
0.366447
0.372187
0.377221
0.381542
0.385454
0.389224
0.392912
0.39646
0.398653
0.399568
0.400069
0.400459
0.241729
0.23056
0.222884
0.21822
0.215084
0.212938
0.21146
0.210513
0.209912
0.209524
0.209276
0.209111
0.208986
0.208896
0.208799
0.208701
0.208616
0.208586
0.208721
0.209267
0.210555
0.213086
0.21735
0.221931
0.22801
0.23713
0.253476
0.27787
0.291264
0.300165
0.307966
0.31565
0.323447
0.331324
0.33913
0.346725
0.353973
0.360774
0.367037
0.372657
0.377533
0.381741
0.38561
0.389392
0.393092
0.396627
0.39868
0.399542
0.399979
0.400358
0.244467
0.233799
0.226341
0.22175
0.218715
0.216594
0.215137
0.214192
0.213595
0.213222
0.212979
0.212819
0.212699
0.2126
0.212511
0.212421
0.21233
0.212288
0.212409
0.21292
0.214172
0.216602
0.220688
0.225111
0.230933
0.239697
0.255321
0.27901
0.292436
0.301339
0.309073
0.316686
0.324403
0.332196
0.339944
0.347473
0.354655
0.361376
0.367539
0.373027
0.377741
0.381856
0.385706
0.389496
0.393206
0.396732
0.398659
0.399482
0.399884
0.400253
0.247122
0.236881
0.229639
0.225124
0.222175
0.220087
0.218644
0.217722
0.217131
0.216757
0.216522
0.216366
0.21625
0.216155
0.216063
0.215968
0.215881
0.215835
0.215938
0.216416
0.217615
0.219978
0.223887
0.228166
0.233766
0.242175
0.25717
0.280162
0.293593
0.302484
0.310156
0.317683
0.325315
0.333041
0.340704
0.348163
0.355272
0.361906
0.367972
0.373294
0.377856
0.381894
0.385745
0.389546
0.393254
0.396752
0.398557
0.39939
0.399813
0.400215
0.249698
0.239842
0.2328
0.228379
0.225491
0.223427
0.222006
0.221101
0.220525
0.220162
0.219921
0.21977
0.219657
0.219565
0.219476
0.219383
0.219295
0.219243
0.219328
0.219775
0.220917
0.223223
0.226962
0.231124
0.236519
0.244596
0.259029
0.281329
0.294727
0.303603
0.311205
0.318641
0.326195
0.333838
0.341423
0.348806
0.355834
0.362371
0.368308
0.373475
0.377887
0.381878
0.385714
0.389527
0.393254
0.396711
0.398495
0.399306
0.399677
0.400069
0.252217
0.242691
0.235833
0.231508
0.228678
0.226654
0.225255
0.224363
0.22379
0.223435
0.2232
0.223052
0.222942
0.222852
0.222765
0.222674
0.222586
0.22253
0.222601
0.22301
0.224105
0.226337
0.229922
0.233987
0.239212
0.246965
0.260895
0.282498
0.295849
0.304695
0.312231
0.319576
0.327043
0.334588
0.342102
0.349395
0.35633
0.362771
0.368564
0.373566
0.377866
0.381809
0.385637
0.389445
0.393201
0.396667
0.398413
0.399202
0.399588
0.399972
0.25467
0.245444
0.238761
0.234537
0.231753
0.229759
0.228385
0.227503
0.226954
0.226594
0.226362
0.226217
0.226109
0.226022
0.225937
0.225845
0.225748
0.225698
0.22576
0.226144
0.227189
0.229344
0.232798
0.236764
0.241828
0.249294
0.262752
0.283678
0.29695
0.30577
0.313225
0.320479
0.327841
0.335303
0.342729
0.34994
0.356771
0.363097
0.368733
0.373584
0.377787
0.381702
0.385512
0.389325
0.393092
0.396562
0.398263
0.399082
0.399472
0.399878
0.257072
0.248114
0.241602
0.237465
0.234733
0.232761
0.231422
0.230559
0.230007
0.229652
0.229423
0.22928
0.229173
0.229076
0.228994
0.228906
0.22882
0.228759
0.228821
0.229184
0.230173
0.23226
0.235591
0.239463
0.244368
0.251589
0.264596
0.284851
0.298041
0.306816
0.314198
0.32135
0.32862
0.335985
0.343305
0.350421
0.357158
0.363359
0.368835
0.373531
0.377666
0.381544
0.385351
0.38917
0.39294
0.39641
0.398186
0.398939
0.399334
0.39976
0.259395
0.250711
0.244348
0.240314
0.237608
0.235683
0.234365
0.233517
0.232962
0.232618
0.232389
0.232241
0.232136
0.23205
0.23196
0.231875
0.231789
0.231727
0.231782
0.232124
0.23307
0.235087
0.238312
0.242078
0.246846
0.253851
0.266447
0.286044
0.299113
0.307848
0.315142
0.322198
0.329361
0.336623
0.343857
0.350863
0.357494
0.363547
0.368876
0.373432
0.377498
0.381352
0.385153
0.388965
0.392754
0.396195
0.398029
0.398806
0.399204
0.399592
0.261663
0.253231
0.247016
0.243071
0.240413
0.238524
0.237226
0.236388
0.235837
0.235489
0.235264
0.235111
0.235008
0.234926
0.234847
0.234753
0.234668
0.234606
0.234654
0.234991
0.235897
0.237825
0.240956
0.24464
0.249265
0.256078
0.268277
0.287236
0.300177
0.308853
0.316068
0.323014
0.330064
0.33723
0.344349
0.351258
0.357772
0.363691
0.368852
0.3733
0.377295
0.381125
0.384917
0.388725
0.39252
0.396038
0.397859
0.398666
0.399043
0.399475
0.263872
0.255678
0.249626
0.245754
0.243135
0.241292
0.240016
0.23918
0.238633
0.238287
0.238064
0.237913
0.237811
0.237718
0.237642
0.23756
0.237476
0.237414
0.237458
0.23778
0.238651
0.240507
0.243542
0.247119
0.25162
0.25827
0.270095
0.288424
0.301223
0.309846
0.316967
0.323811
0.330744
0.337797
0.344818
0.351617
0.357994
0.363772
0.368791
0.373128
0.377081
0.380883
0.384652
0.388456
0.392258
0.395808
0.397671
0.398502
0.398913
0.39933
0.265999
0.258068
0.252166
0.24836
0.245793
0.24398
0.242727
0.241887
0.241357
0.241002
0.24078
0.240631
0.24053
0.240452
0.240366
0.240286
0.240205
0.240141
0.240179
0.240486
0.241336
0.243119
0.246074
0.249551
0.253918
0.260427
0.271888
0.289618
0.302263
0.310815
0.317852
0.324578
0.331402
0.338338
0.345244
0.351926
0.358176
0.363804
0.368675
0.372931
0.376834
0.380612
0.38437
0.388167
0.391976
0.395537
0.397493
0.398339
0.398755
0.399186
0.268071
0.260391
0.254639
0.250915
0.248393
0.246608
0.245373
0.244543
0.244006
0.243665
0.243434
0.243287
0.243188
0.243111
0.243029
0.24295
0.24287
0.242805
0.242838
0.243142
0.243961
0.245679
0.248544
0.251929
0.256168
0.262535
0.273664
0.290819
0.303287
0.311775
0.318712
0.32533
0.332028
0.338842
0.345629
0.352201
0.358319
0.363798
0.368541
0.372702
0.376577
0.380325
0.384071
0.38785
0.391662
0.395262
0.397248
0.398165
0.39861
0.398803
0.270081
0.262662
0.257062
0.253398
0.250929
0.249178
0.247949
0.247128
0.246597
0.246261
0.246033
0.245887
0.24579
0.245716
0.245634
0.245559
0.245471
0.245415
0.245441
0.245729
0.246519
0.248179
0.250955
0.254261
0.258376
0.264603
0.275423
0.292015
0.304307
0.312714
0.319562
0.326056
0.332636
0.339324
0.346
0.352433
0.358427
0.36376
0.368377
0.372463
0.376288
0.380026
0.383747
0.387514
0.391328
0.39495
0.397066
0.397984
0.39845
0.398888
0.272037
0.264872
0.259424
0.25584
0.253415
0.251691
0.250473
0.249663
0.249139
0.248796
0.248582
0.248439
0.248332
0.24826
0.248181
0.248108
0.248031
0.247964
0.247984
0.248255
0.249028
0.250638
0.253322
0.256546
0.260551
0.266635
0.277166
0.293204
0.305326
0.313647
0.320391
0.32677
0.333216
0.339787
0.346325
0.352639
0.358493
0.363697
0.368203
0.372222
0.376011
0.379713
0.383415
0.387165
0.390965
0.394621
0.39683
0.397792
0.398213
0.398728
0.273949
0.267027
0.261742
0.258218
0.255844
0.254143
0.252946
0.252141
0.251625
0.251287
0.251073
0.250925
0.250831
0.250761
0.250684
0.250613
0.250526
0.250471
0.250485
0.250737
0.25149
0.253044
0.255638
0.25879
0.262707
0.268635
0.278882
0.294411
0.306332
0.314574
0.321213
0.327463
0.333783
0.340219
0.346641
0.352824
0.358537
0.363604
0.368009
0.371969
0.375724
0.379402
0.383084
0.386803
0.390591
0.394275
0.396594
0.3976
0.398114
0.398586
0.275825
0.269129
0.264004
0.260556
0.258231
0.256546
0.255363
0.25458
0.25406
0.253727
0.25352
0.253381
0.253278
0.25321
0.253135
0.253067
0.252992
0.252926
0.252936
0.253182
0.253889
0.255404
0.25792
0.260996
0.264822
0.270608
0.280582
0.295613
0.307339
0.315486
0.32203
0.328154
0.334337
0.340637
0.346927
0.35298
0.358562
0.363497
0.36781
0.371717
0.37544
0.379094
0.382743
0.38644
0.390211
0.39392
0.396348
0.397411
0.397933
0.398422
0.277684
0.271195
0.266215
0.262847
0.260566
0.258911
0.257748
0.25697
0.256459
0.25613
0.255924
0.255777
0.255688
0.255614
0.255549
0.255479
0.2554
0.255334
0.255351
0.255569
0.256263
0.257726
0.260147
0.263175
0.266919
0.272556
0.282267
0.29681
0.308335
0.316396
0.322831
0.328828
0.334875
0.341042
0.347196
0.353127
0.358569
0.36338
0.36761
0.371468
0.375149
0.378779
0.382405
0.386068
0.389818
0.393549
0.396091
0.397206
0.397523
0.3982
0.279506
0.27322
0.268391
0.265103
0.262854
0.26123
0.260082
0.259315
0.258812
0.258487
0.258286
0.258139
0.258051
0.257975
0.257916
0.257841
0.257772
0.257707
0.257722
0.257926
0.258583
0.260006
0.262347
0.265307
0.268973
0.274481
0.283938
0.298024
0.309343
0.317304
0.32363
0.329505
0.335404
0.341425
0.347452
0.35325
0.358564
0.363253
0.367402
0.371212
0.374863
0.378457
0.382059
0.385698
0.389425
0.39316
0.395815
0.397
0.397584
0.3981
0.281314
0.275205
0.270512
0.267315
0.265096
0.263506
0.262382
0.261629
0.261133
0.260812
0.260601
0.260467
0.260369
0.260306
0.260238
0.260177
0.260099
0.260045
0.260049
0.260254
0.260876
0.262248
0.264513
0.267414
0.271003
0.276384
0.285594
0.29923
0.310334
0.318199
0.324428
0.330169
0.335919
0.341801
0.347686
0.35335
0.358547
0.363127
0.367202
0.370968
0.374588
0.378155
0.381721
0.385332
0.389022
0.392775
0.395534
0.396791
0.397328
0.397936
0.283094
0.277168
0.272613
0.269486
0.26731
0.265743
0.264643
0.263902
0.263412
0.263084
0.262885
0.262741
0.262656
0.262583
0.262529
0.262459
0.262395
0.262333
0.262346
0.262541
0.263132
0.264455
0.26666
0.269487
0.272999
0.278264
0.287236
0.300439
0.311336
0.319095
0.325216
0.330833
0.336445
0.342175
0.347915
0.353453
0.358515
0.363007
0.367016
0.37074
0.374317
0.377857
0.381393
0.384975
0.388634
0.392377
0.39527
0.396558
0.39723
0.397769
0.284856
0.279087
0.274668
0.271617
0.269485
0.267955
0.266865
0.266135
0.26565
0.26533
0.265129
0.264986
0.264902
0.264831
0.264779
0.264711
0.26465
0.26459
0.264604
0.264788
0.265355
0.266631
0.268765
0.271526
0.274962
0.28012
0.28885
0.301641
0.312341
0.319992
0.326017
0.331494
0.336961
0.342547
0.348138
0.353541
0.358495
0.362884
0.366845
0.370518
0.374077
0.377576
0.381081
0.384619
0.388243
0.391976
0.394969
0.396362
0.39703
0.397593
0.286587
0.280985
0.276692
0.273711
0.271627
0.270132
0.269061
0.26833
0.267851
0.267539
0.267334
0.267205
0.267111
0.26705
0.266991
0.266926
0.266868
0.26681
0.266823
0.267008
0.267553
0.268775
0.270854
0.273535
0.276895
0.281952
0.290461
0.302854
0.313336
0.320888
0.326804
0.33216
0.33748
0.342909
0.348362
0.353628
0.358465
0.362782
0.366677
0.370314
0.373839
0.377314
0.380778
0.384282
0.387866
0.391576
0.394667
0.396153
0.396882
0.397369
0.288284
0.282852
0.278692
0.275783
0.273747
0.272274
0.271223
0.270501
0.270027
0.269707
0.269511
0.269377
0.269297
0.269229
0.269169
0.269118
0.269051
0.268997
0.269007
0.269188
0.269718
0.27089
0.272903
0.275527
0.278801
0.28376
0.292044
0.304057
0.314334
0.32178
0.327594
0.332826
0.338001
0.343275
0.348588
0.353717
0.35844
0.362679
0.366524
0.370127
0.373618
0.37706
0.380505
0.383962
0.387506
0.391174
0.394357
0.395915
0.3967
0.397266
0.289964
0.2847
0.280664
0.277823
0.275826
0.274384
0.27335
0.272638
0.272171
0.271856
0.271656
0.27153
0.27144
0.271385
0.271328
0.27127
0.271215
0.27116
0.271171
0.271346
0.27186
0.272979
0.274938
0.277484
0.280687
0.285546
0.293611
0.305261
0.315334
0.322673
0.328395
0.333498
0.338525
0.343648
0.348807
0.353809
0.358421
0.362585
0.366384
0.369958
0.373422
0.376826
0.380242
0.383664
0.387153
0.390792
0.394062
0.395722
0.396536
0.397111
0.291605
0.286507
0.28262
0.279834
0.277888
0.276475
0.275446
0.274746
0.274286
0.273976
0.273779
0.273656
0.273568
0.273515
0.273459
0.273402
0.273352
0.273298
0.273306
0.273475
0.273974
0.275055
0.276948
0.279432
0.282557
0.287312
0.295177
0.306465
0.316338
0.323568
0.329191
0.334179
0.339055
0.344027
0.349043
0.353895
0.358409
0.362501
0.366259
0.369804
0.373232
0.376615
0.37999
0.383384
0.38683
0.390413
0.393744
0.395501
0.396362
0.396954
0.293231
0.288297
0.284537
0.281833
0.279923
0.278525
0.277526
0.276839
0.276376
0.276083
0.27589
0.275758
0.275682
0.27562
0.275567
0.275524
0.275464
0.275412
0.275417
0.275576
0.276072
0.27711
0.278942
0.281362
0.284425
0.289061
0.296717
0.307671
0.317346
0.324468
0.330004
0.334869
0.339607
0.344417
0.349275
0.353999
0.358405
0.362429
0.366135
0.369653
0.373059
0.376417
0.37976
0.383114
0.386518
0.39005
0.393428
0.395311
0.396198
0.396802
0.294827
0.290072
0.286439
0.283796
0.281934
0.280568
0.279581
0.278898
0.278455
0.278156
0.277967
0.277849
0.277764
0.277712
0.277664
0.277612
0.277555
0.277517
0.27751
0.277667
0.278144
0.279144
0.280903
0.283275
0.28627
0.290796
0.298259
0.308879
0.318345
0.325372
0.330811
0.335556
0.340159
0.344807
0.349516
0.354109
0.358411
0.362366
0.366034
0.369529
0.372912
0.376235
0.379553
0.382874
0.386224
0.389705
0.39312
0.395042
0.396047
0.396662
0.296423
0.29182
0.288319
0.285751
0.28393
0.282584
0.281615
0.280948
0.280515
0.280222
0.280037
0.279921
0.279838
0.279779
0.279739
0.279693
0.279639
0.27959
0.279591
0.279738
0.280191
0.28116
0.282857
0.285174
0.288115
0.29253
0.299778
0.310088
0.319361
0.326279
0.331624
0.336264
0.340724
0.345222
0.34977
0.354224
0.358416
0.362305
0.365946
0.369407
0.372772
0.376071
0.37936
0.382642
0.385951
0.389376
0.392823
0.394869
0.395893
0.396527
0.298026
0.29356
0.290177
0.287687
0.285905
0.284577
0.283631
0.28299
0.282557
0.28227
0.282088
0.281975
0.281893
0.281836
0.281798
0.281754
0.281704
0.281658
0.281658
0.281793
0.282228
0.283171
0.284795
0.28706
0.289947
0.294241
0.301301
0.3113
0.32038
0.32719
0.332443
0.33697
0.341301
0.345641
0.350039
0.354349
0.358445
0.362266
0.365858
0.369295
0.372643
0.375923
0.37918
0.382426
0.385709
0.389068
0.392518
0.394697
0.395739
0.396391
0.299618
0.295288
0.292029
0.289617
0.287862
0.286564
0.285644
0.285007
0.284583
0.284313
0.284129
0.284011
0.283931
0.283887
0.283843
0.283798
0.283751
0.283718
0.283709
0.283834
0.284244
0.285153
0.28672
0.28894
0.291765
0.295954
0.302815
0.312522
0.321396
0.328104
0.333266
0.337695
0.34189
0.346086
0.350324
0.354501
0.358488
0.362239
0.365789
0.369204
0.372522
0.375785
0.379019
0.382239
0.385472
0.388777
0.39222
0.394553
0.395485
0.396267
0.301227
0.297008
0.293868
0.291519
0.289802
0.288538
0.287643
0.287022
0.286606
0.286328
0.286152
0.286043
0.285964
0.28591
0.285867
0.285838
0.285794
0.285757
0.285759
0.285876
0.286259
0.287133
0.288647
0.290808
0.293567
0.297657
0.304323
0.313734
0.322413
0.32902
0.334106
0.338418
0.342492
0.346546
0.350626
0.354659
0.358534
0.362213
0.365731
0.369109
0.372411
0.375657
0.378864
0.382051
0.38525
0.388509
0.391925
0.394384
0.395378
0.396145
0.302836
0.298736
0.295696
0.293419
0.29174
0.290513
0.289631
0.289023
0.288614
0.288341
0.288167
0.288059
0.287982
0.28793
0.287889
0.287852
0.287822
0.287789
0.287795
0.287896
0.288265
0.289113
0.290568
0.292664
0.295366
0.299351
0.305826
0.314946
0.323439
0.329947
0.334938
0.33916
0.343107
0.347013
0.350947
0.354846
0.358608
0.362209
0.365672
0.369032
0.372317
0.375538
0.378722
0.381888
0.38504
0.388253
0.39164
0.394213
0.395354
0.39605
0.304467
0.300462
0.297517
0.295308
0.29367
0.292475
0.29162
0.291017
0.290609
0.290352
0.290169
0.290063
0.289987
0.289936
0.289901
0.289872
0.289836
0.289808
0.289819
0.289929
0.290264
0.291071
0.292483
0.29451
0.297141
0.301038
0.307323
0.316171
0.324475
0.33087
0.335778
0.33991
0.343734
0.347507
0.351287
0.355054
0.358701
0.362223
0.365635
0.368965
0.372216
0.375422
0.378589
0.381736
0.384855
0.388009
0.391347
0.394041
0.395251
0.395954
0.306097
0.302187
0.299345
0.297199
0.295593
0.294434
0.293589
0.293001
0.292605
0.29234
0.292172
0.292056
0.291994
0.291944
0.291906
0.291872
0.291839
0.29182
0.291832
0.291942
0.292269
0.293034
0.294397
0.29636
0.298931
0.302731
0.308829
0.317397
0.325507
0.331793
0.336626
0.340668
0.344374
0.348018
0.351658
0.35527
0.358813
0.362264
0.365619
0.368906
0.372135
0.375324
0.37848
0.381592
0.384681
0.387785
0.391068
0.393865
0.395144
0.395859
0.307742
0.303924
0.301172
0.299083
0.297525
0.296392
0.29557
0.294982
0.294593
0.294332
0.294167
0.294054
0.293993
0.293945
0.293909
0.293877
0.293847
0.293827
0.293848
0.29396
0.294272
0.294996
0.296308
0.298208
0.30071
0.304421
0.310329
0.318626
0.326546
0.332731
0.337484
0.341434
0.345038
0.348546
0.352037
0.355519
0.358957
0.36231
0.365608
0.368857
0.372063
0.375235
0.378367
0.38146
0.384519
0.387584
0.390784
0.3937
0.395056
0.395791
0.309391
0.305663
0.303004
0.300965
0.299454
0.29835
0.297534
0.296969
0.296581
0.296333
0.29616
0.296061
0.29599
0.295944
0.29591
0.29588
0.295857
0.295846
0.295858
0.295973
0.296274
0.296963
0.29823
0.300064
0.302502
0.306111
0.311838
0.319859
0.327588
0.333673
0.338348
0.34221
0.345715
0.34909
0.352448
0.355801
0.35911
0.362386
0.365623
0.368819
0.371997
0.37515
0.378262
0.381336
0.384374
0.38739
0.390532
0.39354
0.39497
0.395718
0.311044
0.307403
0.304835
0.302858
0.301384
0.300309
0.299507
0.298953
0.29857
0.298322
0.298165
0.298058
0.298001
0.297956
0.297924
0.297896
0.297869
0.297854
0.297879
0.297995
0.298287
0.298936
0.300164
0.301925
0.304303
0.307816
0.313345
0.32111
0.328654
0.334633
0.339232
0.343008
0.346406
0.349656
0.35288
0.356095
0.359298
0.362484
0.365656
0.368802
0.371947
0.375066
0.378162
0.381223
0.38424
0.387211
0.390284
0.393359
0.394885
0.395658
0.312719
0.30916
0.306684
0.304755
0.303329
0.302266
0.301485
0.300941
0.30057
0.30033
0.300177
0.300072
0.300018
0.299974
0.299943
0.299917
0.299892
0.299878
0.299903
0.300017
0.300303
0.300915
0.302088
0.303801
0.306115
0.309528
0.31487
0.322369
0.329717
0.335589
0.340124
0.343818
0.347111
0.350244
0.353344
0.356426
0.359511
0.362604
0.365707
0.368814
0.37191
0.375001
0.378083
0.381126
0.384114
0.387059
0.390057
0.393167
0.39479
0.395608
0.314407
0.310925
0.308535
0.30666
0.305277
0.304237
0.303469
0.302947
0.302587
0.302355
0.302209
0.302107
0.302043
0.302002
0.301972
0.30195
0.301936
0.301922
0.301934
0.302044
0.302334
0.302914
0.304033
0.3057
0.307952
0.311249
0.316403
0.323638
0.330801
0.336577
0.341025
0.344649
0.347844
0.350865
0.353823
0.356782
0.359761
0.362758
0.365787
0.368831
0.371899
0.37495
0.378013
0.381035
0.384008
0.386923
0.389851
0.392965
0.394734
0.395562
0.316127
0.312712
0.310402
0.308586
0.307232
0.306214
0.305475
0.304965
0.304619
0.304395
0.304252
0.304154
0.304092
0.304052
0.304024
0.304001
0.303981
0.303971
0.303987
0.304091
0.304372
0.304925
0.305991
0.307611
0.309802
0.312994
0.317959
0.324931
0.331908
0.337564
0.341949
0.345485
0.348593
0.351498
0.354335
0.357176
0.360038
0.362938
0.36589
0.368885
0.371904
0.374923
0.377945
0.380958
0.383914
0.386791
0.389665
0.392759
0.394664
0.395531
0.317871
0.314516
0.312292
0.310525
0.309209
0.308214
0.307493
0.306999
0.306678
0.306451
0.306311
0.306215
0.306159
0.306127
0.306101
0.30608
0.306061
0.306049
0.306067
0.306164
0.306421
0.306962
0.307966
0.309535
0.311676
0.314754
0.31953
0.326239
0.333027
0.338573
0.342886
0.346358
0.349372
0.352163
0.354885
0.357598
0.360345
0.363158
0.36603
0.368953
0.371921
0.374915
0.377903
0.380885
0.383824
0.386693
0.389515
0.392538
0.394597
0.395501
0.319657
0.316352
0.314197
0.312492
0.31121
0.310242
0.309538
0.309064
0.308753
0.308532
0.308397
0.308303
0.308243
0.308216
0.308193
0.308174
0.308157
0.308147
0.30816
0.308253
0.308496
0.309014
0.309972
0.311486
0.313562
0.316544
0.321132
0.327576
0.334161
0.339608
0.343848
0.347248
0.350172
0.352865
0.355463
0.358052
0.360694
0.363407
0.366196
0.369061
0.37197
0.374916
0.377872
0.380816
0.383739
0.386594
0.389367
0.392326
0.394493
0.395466
0.32148
0.318221
0.31613
0.314478
0.313228
0.312291
0.311616
0.311161
0.310848
0.310643
0.310507
0.31042
0.310362
0.310326
0.310303
0.310285
0.310272
0.310264
0.310283
0.310364
0.310603
0.311098
0.312
0.313461
0.315475
0.318354
0.322763
0.328947
0.335324
0.34066
0.344827
0.348157
0.351007
0.353594
0.356084
0.358563
0.36109
0.363699
0.366399
0.369194
0.372037
0.374943
0.377861
0.380783
0.383687
0.386512
0.389244
0.392108
0.394456
0.395329
0.323355
0.320123
0.318098
0.316498
0.315281
0.314367
0.313731
0.313281
0.312978
0.312775
0.312647
0.312556
0.3125
0.312465
0.312443
0.312428
0.312417
0.312414
0.312434
0.31251
0.312733
0.313215
0.314068
0.315467
0.317418
0.320202
0.324429
0.330346
0.336522
0.341751
0.345839
0.349112
0.351869
0.354366
0.356741
0.3591
0.361524
0.364028
0.366649
0.369355
0.372149
0.374994
0.377878
0.380763
0.383634
0.386447
0.389146
0.391907
0.394389
0.395434
0.325272
0.322078
0.320104
0.318556
0.317361
0.316483
0.315874
0.315437
0.315139
0.314942
0.314816
0.314728
0.314673
0.314639
0.314619
0.314606
0.314598
0.314599
0.314623
0.314696
0.314902
0.315359
0.316168
0.317506
0.319387
0.322089
0.326139
0.331791
0.337761
0.342861
0.346891
0.350098
0.352783
0.355185
0.357449
0.359703
0.362014
0.364411
0.366936
0.36957
0.372296
0.375086
0.377913
0.380761
0.383598
0.386403
0.389065
0.391727
0.394306
0.395428
0.327241
0.324072
0.322145
0.320645
0.319486
0.318643
0.318046
0.317633
0.317341
0.317148
0.317013
0.316932
0.316885
0.316852
0.316833
0.316822
0.316817
0.316822
0.316839
0.316923
0.317115
0.317546
0.318315
0.31958
0.3214
0.324025
0.327904
0.333288
0.339038
0.344029
0.347988
0.351122
0.353742
0.356046
0.358214
0.360355
0.362552
0.364857
0.367277
0.369824
0.372472
0.375199
0.377976
0.38078
0.383583
0.386363
0.388996
0.39158
0.394221
0.395414
0.329254
0.326118
0.324247
0.32278
0.321658
0.320851
0.320274
0.319868
0.319585
0.319384
0.319265
0.319181
0.319129
0.319098
0.31908
0.31907
0.319067
0.319076
0.319109
0.319183
0.319364
0.319767
0.32051
0.321716
0.323467
0.326001
0.329716
0.334838
0.340388
0.345255
0.349131
0.352211
0.35475
0.356966
0.359042
0.361073
0.363169
0.36536
0.367692
0.370144
0.372708
0.375358
0.378082
0.380837
0.383605
0.386336
0.388969
0.391463
0.394107
0.395407
0.331322
0.328217
0.326389
0.324968
0.323881
0.323107
0.322548
0.322142
0.321864
0.321681
0.321554
0.321473
0.321434
0.321405
0.321388
0.32138
0.321378
0.321383
0.321413
0.32149
0.321674
0.32205
0.322756
0.323897
0.325586
0.328033
0.331591
0.336465
0.341798
0.346538
0.35035
0.353365
0.355821
0.357965
0.35993
0.361875
0.36386
0.365939
0.368164
0.370516
0.372996
0.375578
0.378236
0.380942
0.383656
0.386354
0.388953
0.391382
0.394016
0.395395
0.333443
0.33037
0.328584
0.327208
0.326158
0.325402
0.324859
0.324475
0.324205
0.324018
0.323908
0.323831
0.323784
0.323755
0.323739
0.323731
0.323731
0.323742
0.32378
0.323859
0.324025
0.324386
0.325055
0.326139
0.327767
0.330137
0.333533
0.338172
0.343291
0.347911
0.351645
0.354583
0.356971
0.359027
0.360904
0.362746
0.364621
0.3666
0.368714
0.370973
0.373356
0.375855
0.378442
0.381075
0.383747
0.386406
0.388968
0.391334
0.393926
0.395383
0.335602
0.332578
0.330835
0.329499
0.32849
0.327762
0.327234
0.326851
0.326591
0.326424
0.326309
0.326237
0.326201
0.326174
0.326159
0.326152
0.326152
0.326156
0.326189
0.326268
0.326441
0.326774
0.32741
0.328453
0.330016
0.33229
0.335556
0.339962