/*--------------------------------*- C++ -*----------------------------------*\
| =========                 |                                                 |
| \\      /  F ield         | OpenFOAM: The Open Source CFD Toolbox           |
|  \\    /   O peration     | Version:  v1912                                 |
|   \\  /    A nd           | Website:  www.openfoam.com                      |
|    \\/     M anipulation  |                                                 |
\*---------------------------------------------------------------------------*/
FoamFile
{
    version     2.0;
    format      ascii;
    class       volScalarField;
    location    "31536000";
    object      theta;
}
// * * * * * * * * * * * * * * * * * * * * * * * * * * * * * * * * * * * * * //

dimensions      [0 0 0 0 0 0 0];


internalField   nonuniform List<scalar> 
4250
(
0.150888
0.149288
0.149245
0.149231
0.14923
0.149228
0.149227
0.149227
0.149227
0.149227
0.149227
0.149227
0.149227
0.149227
0.149227
0.149227
0.149227
0.149227
0.149227
0.149227
0.149227
0.149227
0.149227
0.149227
0.149227
0.149227
0.149227
0.149227
0.149227
0.149227
0.149227
0.149227
0.149227
0.149227
0.149227
0.149227
0.149227
0.149227
0.149227
0.149226
0.149226
0.149226
0.149226
0.149226
0.149226
0.149226
0.149226
0.149226
0.149226
0.149226
0.154623
0.149689
0.149331
0.149252
0.149246
0.149237
0.149231
0.14923
0.149229
0.149229
0.149229
0.149229
0.149229
0.149229
0.149229
0.149229
0.149229
0.149229
0.149229
0.149229
0.149229
0.149229
0.149229
0.149229
0.149229
0.149229
0.149229
0.149229
0.149229
0.149229
0.149229
0.149229
0.149228
0.149229
0.149228
0.149228
0.149228
0.149228
0.149228
0.149227
0.149227
0.149226
0.149226
0.149225
0.149224
0.149224
0.149223
0.149223
0.149223
0.149224
0.162738
0.151597
0.149794
0.149372
0.14935
0.1493
0.149266
0.149256
0.149255
0.149254
0.149253
0.149253
0.149253
0.149253
0.149253
0.149253
0.149253
0.149253
0.149253
0.149253
0.149253
0.149253
0.149253
0.149253
0.149253
0.149253
0.149253
0.149253
0.149253
0.149252
0.149252
0.149252
0.149252
0.149252
0.149252
0.149251
0.149251
0.149251
0.14925
0.149249
0.149247
0.149245
0.14924
0.149232
0.149228
0.149227
0.149224
0.149222
0.149222
0.149222
0.181483
0.157345
0.151733
0.149921
0.149834
0.149612
0.149434
0.149387
0.14938
0.149379
0.149377
0.149376
0.149376
0.149375
0.149375
0.149375
0.149375
0.149375
0.149375
0.149375
0.149375
0.149375
0.149375
0.149375
0.149375
0.149375
0.149374
0.149374
0.149374
0.149374
0.149374
0.149374
0.149373
0.149373
0.149372
0.149371
0.14937
0.149368
0.149366
0.149362
0.149356
0.149346
0.149323
0.149279
0.149255
0.149251
0.149236
0.149226
0.149222
0.149221
0.191293
0.163899
0.157211
0.152108
0.151657
0.150789
0.150116
0.149944
0.14992
0.149913
0.149908
0.149905
0.149903
0.149901
0.149901
0.1499
0.1499
0.149899
0.149899
0.149899
0.149899
0.149899
0.149899
0.149899
0.149899
0.149899
0.149899
0.149898
0.149898
0.149898
0.149897
0.149896
0.149895
0.149893
0.149891
0.149887
0.149882
0.149876
0.149866
0.149851
0.149829
0.14979
0.149696
0.14949
0.149384
0.149371
0.149303
0.149252
0.149226
0.149221
0.198514
0.174717
0.163251
0.158656
0.15632
0.153879
0.152407
0.152016
0.15193
0.151888
0.15186
0.151842
0.151831
0.151824
0.151819
0.151816
0.151814
0.151813
0.151812
0.151812
0.151811
0.151811
0.151811
0.15181
0.15181
0.15181
0.151809
0.151808
0.151807
0.151804
0.151801
0.151796
0.15179
0.15178
0.151767
0.151748
0.151722
0.151687
0.151638
0.151567
0.151465
0.151304
0.150976
0.150275
0.149917
0.149862
0.149589
0.149372
0.149254
0.149226
0.204279
0.183777
0.172029
0.166236
0.161458
0.159138
0.158251
0.157694
0.157338
0.15711
0.156965
0.156874
0.156819
0.156784
0.15676
0.156745
0.156736
0.156731
0.156727
0.156724
0.156722
0.15672
0.156719
0.156717
0.156716
0.156714
0.156711
0.156706
0.156699
0.156688
0.156673
0.15665
0.156616
0.156571
0.156506
0.15642
0.156301
0.156142
0.15593
0.155647
0.155265
0.154745
0.15395
0.152572
0.15182
0.151517
0.150555
0.149852
0.149378
0.149253
0.20924
0.191119
0.180147
0.173735
0.169165
0.166682
0.164965
0.16381
0.163032
0.162571
0.162288
0.162102
0.161998
0.161939
0.161893
0.161857
0.161847
0.161841
0.161835
0.161825
0.161818
0.161813
0.161808
0.161805
0.161803
0.161801
0.161798
0.161794
0.161783
0.161755
0.161734
0.161696
0.161626
0.161554
0.161434
0.161291
0.161088
0.16082
0.160492
0.160079
0.159567
0.158971
0.158326
0.157574
0.15663
0.155341
0.15297
0.151413
0.14987
0.149375
0.213786
0.197298
0.187091
0.180669
0.176596
0.17384
0.171788
0.170443
0.169582
0.16908
0.168755
0.168552
0.168438
0.168379
0.168327
0.168317
0.168292
0.168274
0.168262
0.168254
0.168248
0.168243
0.16824
0.168236
0.168231
0.168227
0.168225
0.168222
0.168218
0.168211
0.168166
0.16812
0.168065
0.167992
0.167868
0.167716
0.167517
0.167237
0.166907
0.166488
0.16595
0.165265
0.164392
0.163263
0.161611
0.159505
0.157329
0.154855
0.151454
0.149828
0.217973
0.202686
0.193131
0.186971
0.183239
0.180395
0.178304
0.176996
0.176157
0.175678
0.175392
0.175204
0.175104
0.175017
0.174955
0.174944
0.174939
0.174936
0.174929
0.174922
0.174917
0.174913
0.17491
0.174908
0.174904
0.174899
0.174892
0.174881
0.174865
0.174841
0.174804
0.174782
0.174735
0.174631
0.174535
0.174391
0.174177
0.173936
0.173582
0.173147
0.172582
0.171842
0.17084
0.169463
0.16757
0.165265
0.162524
0.158714
0.154908
0.151158
0.221905
0.207571
0.198485
0.192638
0.189081
0.186227
0.184278
0.183064
0.18231
0.181853
0.181552
0.181391
0.181304
0.18123
0.181174
0.181138
0.181115
0.181101
0.181092
0.18109
0.18109
0.181089
0.181089
0.181089
0.181088
0.181088
0.181087
0.181086
0.181084
0.181081
0.181048
0.181001
0.180932
0.180878
0.180763
0.180641
0.180454
0.180183
0.179851
0.179413
0.178836
0.178056
0.177004
0.175625
0.173753
0.171512
0.168453
0.163971
0.158664
0.153826
0.225661
0.212023
0.203284
0.197808
0.19432
0.191608
0.189763
0.188616
0.187908
0.187498
0.187221
0.187007
0.186942
0.186858
0.186805
0.186771
0.186749
0.186735
0.186726
0.18672
0.186716
0.186714
0.186714
0.186713
0.186713
0.186713
0.186712
0.186712
0.186711
0.186709
0.186693
0.186649
0.186585
0.186494
0.186433
0.186256
0.186085
0.185832
0.185474
0.185048
0.184449
0.183701
0.182716
0.181367
0.179659
0.177537
0.174425
0.169915
0.163587
0.157033
0.229202
0.216169
0.20772
0.202524
0.199105
0.196537
0.194799
0.193717
0.193033
0.192579
0.192314
0.192173
0.192044
0.191962
0.191909
0.191905
0.191902
0.1919
0.191899
0.191894
0.19189
0.191888
0.191885
0.191883
0.191881
0.191877
0.191872
0.191864
0.191852
0.191833
0.191805
0.191764
0.191703
0.191616
0.191562
0.191393
0.191232
0.190993
0.190655
0.190188
0.189625
0.188919
0.187944
0.186704
0.185146
0.183117
0.180086
0.175828
0.169223
0.161119
0.232548
0.220094
0.21192
0.206957
0.203555
0.201104
0.199443
0.198408
0.19775
0.197307
0.197048
0.196841
0.19678
0.196701
0.196649
0.196617
0.196595
0.196582
0.196573
0.196567
0.196563
0.196561
0.196558
0.196556
0.196554
0.19655
0.196546
0.196538
0.196527
0.196509
0.196482
0.196443
0.196435
0.19637
0.196253
0.196108
0.195941
0.195717
0.195398
0.194959
0.194427
0.19373
0.192787
0.191693
0.19023
0.188257
0.185384
0.181307
0.174933
0.166069
0.235783
0.22378
0.215828
0.21107
0.207752
0.20541
0.203813
0.202773
0.202129
0.201693
0.201403
0.201235
0.201108
0.201028
0.201004
0.200999
0.200993
0.20098
0.200971
0.200966
0.200962
0.200959
0.200957
0.200955
0.200952
0.200949
0.200945
0.200938
0.200927
0.20091
0.200885
0.200847
0.200792
0.200713
0.200635
0.200517
0.200308
0.200099
0.199801
0.199392
0.198846
0.198197
0.197339
0.196288
0.194904
0.193038
0.190266
0.186415
0.180333
0.171333
0.238778
0.227261
0.219569
0.214925
0.211725
0.20946
0.207886
0.206841
0.206206
0.205777
0.205528
0.205327
0.205202
0.205123
0.205103
0.205098
0.20509
0.205077
0.205069
0.205063
0.205059
0.205057
0.205054
0.205052
0.20505
0.205047
0.205043
0.205036
0.205026
0.205011
0.204987
0.204952
0.2049
0.204825
0.204719
0.204643
0.204446
0.204252
0.203912
0.203526
0.203089
0.202425
0.201636
0.200601
0.199278
0.197479
0.194849
0.191191
0.185377
0.176513
0.24169
0.230634
0.223111
0.2186
0.215469
0.213306
0.211777
0.210748
0.210056
0.209636
0.209393
0.209196
0.209073
0.208996
0.208977
0.208973
0.208965
0.208952
0.208944
0.208938
0.208935
0.208932
0.20893
0.208928
0.208926
0.208923
0.208919
0.208913
0.208904
0.208889
0.208867
0.208834
0.208785
0.208715
0.208616
0.208548
0.208362
0.20813
0.207858
0.207505
0.207033
0.206414
0.205681
0.204704
0.203452
0.201674
0.19919
0.195635
0.19008
0.181483
0.244465
0.233848
0.226483
0.222085
0.219007
0.216923
0.215427
0.214416
0.213738
0.213328
0.21303
0.212899
0.212779
0.212703
0.212655
0.212624
0.212605
0.212592
0.212584
0.212579
0.212575
0.212573
0.212571
0.212569
0.212567
0.212564
0.212561
0.212555
0.212546
0.212533
0.212528
0.212527
0.212506
0.21244
0.212347
0.212218
0.212087
0.211878
0.211633
0.211242
0.2108
0.210235
0.209527
0.208598
0.207333
0.205648
0.203334
0.199898
0.194519
0.18617
0.247052
0.236918
0.229774
0.225397
0.222457
0.220413
0.218878
0.217887
0.217226
0.216825
0.216596
0.216408
0.21629
0.216216
0.216169
0.216161
0.216157
0.216155
0.216153
0.216152
0.216151
0.216151
0.216151
0.21615
0.21615
0.21615
0.216148
0.216142
0.216134
0.216122
0.216103
0.216074
0.216031
0.21597
0.215882
0.21576
0.215665
0.215444
0.215214
0.214844
0.214428
0.213875
0.213201
0.212258
0.211045
0.209401
0.207208
0.20387
0.198727
0.19065
0.249607
0.23986
0.232931
0.228639
0.22577
0.223737
0.222231
0.221264
0.220618
0.22023
0.219938
0.219823
0.219708
0.219636
0.219589
0.21956
0.219541
0.219529
0.219521
0.219516
0.219512
0.21951
0.219508
0.219507
0.219505
0.219503
0.2195
0.219495
0.219488
0.219476
0.219458
0.219431
0.219391
0.219348
0.219321
0.219206
0.219049
0.218857
0.218632
0.218341
0.217875
0.217346
0.216717
0.215791
0.214629
0.21307
0.210919
0.207733
0.202765
0.194909
0.252084
0.242687
0.235966
0.231688
0.228908
0.226918
0.225452
0.224502
0.223872
0.223495
0.223208
0.223086
0.222985
0.222913
0.222868
0.222839
0.22282
0.222808
0.2228
0.222795
0.222792
0.22279
0.222788
0.222786
0.222785
0.222783
0.22278
0.222775
0.222769
0.222758
0.222741
0.222716
0.222678
0.222624
0.222545
0.222507
0.222358
0.222157
0.221962
0.221615
0.221236
0.220727
0.220052
0.219159
0.218047
0.216565
0.214506
0.211389
0.206582
0.198962
0.254427
0.245412
0.238878
0.234702
0.231998
0.230047
0.228609
0.227621
0.227006
0.226638
0.226356
0.226248
0.226137
0.226066
0.226021
0.225992
0.225974
0.225962
0.225955
0.22595
0.225946
0.225944
0.225942
0.225941
0.225939
0.225937
0.225935
0.225931
0.225924
0.225914
0.225898
0.225875
0.225839
0.225787
0.225713
0.225679
0.225537
0.225344
0.225158
0.224824
0.22446
0.223969
0.223317
0.222456
0.22134
0.21991
0.217927
0.214938
0.210252
0.202828
0.256791
0.248087
0.241661
0.237622
0.234959
0.233
0.231599
0.230705
0.2301
0.229672
0.229462
0.229289
0.229178
0.229108
0.229063
0.229035
0.229017
0.229005
0.228997
0.228992
0.228989
0.228987
0.228985
0.228984
0.228982
0.228981
0.228978
0.228974
0.228968
0.228959
0.228944
0.228921
0.228888
0.228842
0.228838
0.228738
0.228601
0.228416
0.22824
0.227915
0.227565
0.227069
0.226429
0.225632
0.224545
0.223125
0.221205
0.218333
0.213818
0.206615
0.259043
0.250655
0.244383
0.240457
0.237802
0.235932
0.234568
0.233626
0.233036
0.232622
0.232405
0.23223
0.23212
0.23205
0.232006
0.231978
0.23196
0.231948
0.23194
0.231936
0.231935
0.231935
0.231934
0.231934
0.231934
0.231934
0.231934
0.231934
0.231934
0.231933
0.231933
0.231933
0.231907
0.231859
0.231791
0.231696
0.231563
0.231384
0.231217
0.230903
0.230565
0.2301
0.229444
0.228704
0.22766
0.226289
0.224432
0.221657
0.217232
0.210188
0.261259
0.253098
0.247043
0.243159
0.240611
0.238714
0.237385
0.236462
0.235881
0.23553
0.235257
0.235083
0.235015
0.234974
0.23493
0.234902
0.234884
0.234872
0.234865
0.23486
0.234856
0.234854
0.234853
0.234851
0.23485
0.234848
0.234846
0.234843
0.234837
0.234829
0.234816
0.234795
0.234765
0.23472
0.234654
0.234562
0.234435
0.234333
0.234102
0.233799
0.233474
0.233034
0.232407
0.231655
0.230679
0.229354
0.227481
0.224807
0.220515
0.213661
0.263442
0.255524
0.249634
0.245831
0.243347
0.241495
0.240193
0.239293
0.238719
0.2383
0.238049
0.237926
0.237817
0.237748
0.237703
0.237675
0.237657
0.237645
0.237638
0.237633
0.23763
0.237628
0.237626
0.237625
0.237623
0.237622
0.23762
0.237617
0.237611
0.237603
0.237591
0.237572
0.237543
0.237499
0.237437
0.237359
0.237297
0.23713
0.236908
0.236685
0.236303
0.235881
0.235308
0.234543
0.233613
0.232327
0.230508
0.227916
0.223752
0.217033
0.265589
0.257903
0.252166
0.248454
0.245947
0.244141
0.242876
0.241982
0.241415
0.241005
0.2408
0.240627
0.240518
0.240449
0.240406
0.240377
0.240359
0.240348
0.24034
0.240335
0.240332
0.24033
0.240328
0.240327
0.240326
0.240324
0.240322
0.240319
0.240315
0.240307
0.240295
0.240277
0.24025
0.240247
0.240219
0.240135
0.240017
0.239857
0.239643
0.239431
0.239062
0.238658
0.238119
0.237361
0.236441
0.235194
0.233452
0.230933
0.226856
0.220283
0.267674
0.260234
0.254629
0.251012
0.248562
0.2468
0.245489
0.244632
0.244046
0.243704
0.243437
0.243265
0.243157
0.243088
0.243074
0.243065
0.24306
0.243056
0.243051
0.243046
0.243042
0.24304
0.243039
0.243037
0.243036
0.243035
0.243033
0.24303
0.243026
0.243019
0.243008
0.24299
0.242964
0.242925
0.242868
0.242787
0.242675
0.242521
0.242386
0.242114
0.241759
0.241372
0.240854
0.240104
0.239186
0.237968
0.236323
0.233844
0.229858
0.223425
0.269698
0.26245
0.257005
0.253458
0.251054
0.249334
0.248117
0.247247
0.24664
0.246283
0.246017
0.245847
0.245811
0.245743
0.245699
0.245671
0.245653
0.245642
0.245635
0.24563
0.245626
0.245624
0.245623
0.245622
0.245621
0.245619
0.245618
0.245615
0.245611
0.245604
0.245594
0.245578
0.245553
0.245516
0.245462
0.245385
0.245278
0.245131
0.245004
0.244743
0.244401
0.24403
0.243531
0.242796
0.24191
0.240724
0.239095
0.236661
0.232818
0.226541
0.271655
0.264695
0.259394
0.255901
0.253563
0.251817
0.250622
0.249763
0.249216
0.248811
0.248549
0.248451
0.248345
0.248277
0.248234
0.248206
0.248189
0.248177
0.24817
0.248165
0.248162
0.24816
0.248158
0.248157
0.248156
0.248155
0.248153
0.248151
0.248147
0.248141
0.248131
0.248116
0.248093
0.248058
0.248007
0.247934
0.247832
0.247722
0.247573
0.247322
0.246993
0.246637
0.246142
0.24544
0.244577
0.243422
0.2418
0.239459
0.235706
0.229502
0.27364
0.266828
0.26167
0.258268
0.255973
0.254325
0.253079
0.252234
0.251694
0.251295
0.251036
0.250941
0.250835
0.250768
0.250725
0.250698
0.25068
0.250669
0.250662
0.250657
0.250654
0.250652
0.25065
0.250649
0.250648
0.250647
0.250645
0.250643
0.25064
0.250634
0.250625
0.250611
0.250589
0.250557
0.250508
0.250439
0.250342
0.250227
0.250097
0.249856
0.249539
0.249196
0.248659
0.248033
0.247192
0.246068
0.244489
0.242199
0.238529
0.232456
0.275514
0.268921
0.263909
0.260578
0.258335
0.256719
0.255494
0.254663
0.254133
0.25374
0.253484
0.253385
0.253286
0.25322
0.253178
0.253151
0.253133
0.253122
0.253115
0.25311
0.253107
0.253105
0.253103
0.253102
0.253101
0.2531
0.253099
0.253097
0.253094
0.253088
0.25308
0.253067
0.253047
0.253016
0.25297
0.252905
0.252812
0.252684
0.252581
0.252348
0.252042
0.251712
0.251189
0.250579
0.24976
0.248596
0.247128
0.244887
0.241293
0.235343
0.277353
0.270978
0.266111
0.262852
0.26066
0.259074
0.257871
0.257056
0.256536
0.256149
0.255897
0.255734
0.255656
0.255632
0.255594
0.255567
0.25555
0.255539
0.255532
0.255527
0.255524
0.255522
0.25552
0.255519
0.255518
0.255518
0.255516
0.255514
0.255511
0.255507
0.255499
0.255487
0.255468
0.255439
0.255396
0.255333
0.255245
0.255122
0.254955
0.254802
0.254505
0.254115
0.253677
0.253038
0.252216
0.251153
0.24965
0.247455
0.244004
0.238097
0.279164
0.273
0.268278
0.265095
0.262949
0.261392
0.260215
0.259417
0.258836
0.258525
0.258276
0.258116
0.258013
0.257948
0.257906
0.257879
0.257862
0.257851
0.257844
0.257839
0.257836
0.257834
0.257833
0.257832
0.257831
0.25783
0.257829
0.257827
0.257824
0.25782
0.257813
0.257801
0.257784
0.257774
0.257767
0.257727
0.257643
0.257525
0.257364
0.257147
0.25693
0.256551
0.25606
0.255479
0.254706
0.253601
0.2522
0.250052
0.246596
0.240866
0.280885
0.274991
0.270412
0.267308
0.265207
0.263611
0.262506
0.261676
0.261176
0.260799
0.260625
0.260466
0.260364
0.260299
0.260258
0.260231
0.260214
0.260203
0.260196
0.260191
0.260188
0.260186
0.260185
0.260184
0.260183
0.260182
0.260181
0.260179
0.260177
0.260173
0.260166
0.260155
0.260139
0.260113
0.260074
0.260017
0.259936
0.259823
0.259739
0.259529
0.25925
0.258906
0.25847
0.257876
0.25709
0.256083
0.254641
0.252537
0.249216
0.243585
0.282665
0.276885
0.272517
0.269493
0.267363
0.265871
0.264744
0.263979
0.263444
0.263116
0.262872
0.262714
0.262614
0.262549
0.262508
0.262481
0.26247
0.262464
0.262461
0.262459
0.262458
0.262457
0.262456
0.262456
0.262455
0.262455
0.262455
0.262454
0.262454
0.262453
0.262452
0.262451
0.262448
0.262439
0.262402
0.262348
0.26227
0.262162
0.262012
0.261809
0.261603
0.261252
0.260784
0.260243
0.259456
0.258462
0.257046
0.255057
0.251796
0.246186
0.284369
0.278829
0.274574
0.27158
0.269564
0.268036
0.267006
0.266185
0.265701
0.265333
0.265111
0.265007
0.264906
0.264842
0.264801
0.264775
0.264758
0.264747
0.26474
0.264735
0.264732
0.26473
0.264729
0.264728
0.264727
0.264726
0.264725
0.264724
0.264722
0.264718
0.264712
0.264703
0.264688
0.264665
0.26463
0.264579
0.264505
0.2644
0.264256
0.264131
0.26387
0.263523
0.263141
0.262547
0.26184
0.260809
0.259477
0.257472
0.254268
0.248815
0.28607
0.280684
0.276579
0.273715
0.27167
0.270249
0.269174
0.268437
0.267889
0.267577
0.267357
0.267202
0.267102
0.267038
0.266998
0.266971
0.266954
0.266944
0.266936
0.266932
0.266929
0.266927
0.266926
0.266925
0.266924
0.266923
0.266922
0.266921
0.266919
0.266916
0.26691
0.266901
0.266887
0.266866
0.266833
0.266784
0.266713
0.266629
0.266546
0.266357
0.266105
0.265771
0.265403
0.264826
0.264139
0.263129
0.261838
0.259856
0.256736
0.251334
0.287817
0.282597
0.278543
0.275757
0.273826
0.272372
0.271319
0.270595
0.270053
0.269764
0.269527
0.269373
0.269275
0.269211
0.269171
0.269145
0.269128
0.269117
0.26911
0.269106
0.269103
0.269101
0.269099
0.269098
0.269098
0.269097
0.269096
0.269095
0.269093
0.26909
0.269085
0.269077
0.269064
0.269044
0.269012
0.268966
0.26892
0.268875
0.268742
0.268562
0.268319
0.267996
0.267643
0.267084
0.266414
0.265424
0.264155
0.262212
0.259185
0.253888
0.28947
0.284428
0.280563
0.277783
0.275895
0.274475
0.273443
0.272731
0.272196
0.271912
0.271678
0.271525
0.271428
0.271365
0.271325
0.271299
0.271282
0.271271
0.271265
0.27126
0.271257
0.271255
0.271254
0.271253
0.271252
0.271252
0.271251
0.27125
0.271248
0.271245
0.271241
0.271233
0.271221
0.271202
0.271173
0.271129
0.271086
0.271046
0.27092
0.270747
0.270514
0.270204
0.269864
0.26932
0.268667
0.267696
0.266386
0.264542
0.261565
0.256337
0.291166
0.286248
0.282498
0.279853
0.277947
0.276561
0.275548
0.274848
0.274321
0.274042
0.273811
0.273661
0.273564
0.273502
0.273463
0.273437
0.273421
0.27341
0.273403
0.273399
0.273396
0.273394
0.273392
0.273392
0.273391
0.27339
0.27339
0.273389
0.273387
0.273385
0.27338
0.273374
0.273362
0.273345
0.273318
0.273277
0.273217
0.273131
0.273083
0.272918
0.272694
0.272395
0.27203
0.271539
0.270829
0.269948
0.268665
0.266851
0.26392
0.258757
0.292854
0.288059
0.284422
0.281819
0.279987
0.278631
0.277637
0.276949
0.276431
0.276086
0.275931
0.275783
0.275688
0.275627
0.275588
0.275563
0.275546
0.275536
0.275529
0.275525
0.275522
0.27552
0.275519
0.275518
0.275517
0.275517
0.275516
0.275515
0.275514
0.275512
0.275508
0.275502
0.275492
0.275475
0.27545
0.275412
0.275356
0.275275
0.275161
0.275004
0.274861
0.274572
0.274186
0.273732
0.273045
0.272122
0.270927
0.269141
0.266252
0.261151
0.294462
0.289789
0.286336
0.283751
0.282016
0.280688
0.279712
0.278967
0.27853
0.278193
0.27797
0.277825
0.277731
0.2777
0.27768
0.277667
0.277659
0.277653
0.277646
0.277642
0.277639
0.277637
0.277636
0.277635
0.277634
0.277634
0.277633
0.277632
0.277631
0.277629
0.277626
0.27762
0.277611
0.277596
0.277573
0.277537
0.277485
0.277408
0.2773
0.27715
0.276944
0.276666
0.276361
0.275856
0.275211
0.274334
0.273104
0.271344
0.268567
0.263521
0.296132
0.291582
0.288169
0.285722
0.283963
0.282661
0.281705
0.281047
0.280551
0.280291
0.280073
0.279931
0.279839
0.279779
0.279741
0.279717
0.279701
0.279691
0.279684
0.27968
0.279677
0.279675
0.279674
0.279673
0.279673
0.279672
0.279672
0.279671
0.27967
0.279668
0.279665
0.279661
0.279652
0.279639
0.279617
0.279584
0.279534
0.279462
0.279359
0.279265
0.279088
0.278818
0.278452
0.277995
0.277364
0.276473
0.275339
0.273606
0.270794
0.265871
0.297725
0.293338
0.290067
0.287687
0.285972
0.284696
0.283762
0.283051
0.282638
0.282314
0.2821
0.28196
0.28187
0.281811
0.281774
0.281751
0.281742
0.281737
0.281733
0.28173
0.281729
0.281728
0.281727
0.281727
0.281726
0.281726
0.281726
0.281726
0.281725
0.281725
0.281724
0.281722
0.28172
0.281716
0.281709
0.281695
0.281649
0.28158
0.281482
0.281344
0.281152
0.28089
0.280565
0.280123
0.279474
0.278675
0.277492
0.275785
0.27308
0.268205
0.299317
0.295076
0.291887
0.289578
0.287905
0.286654
0.285745
0.285124
0.28465
0.284333
0.284134
0.284057
0.283968
0.283911
0.283874
0.28385
0.283835
0.283825
0.283818
0.283814
0.283811
0.283809
0.283808
0.283807
0.283807
0.283806
0.283806
0.283806
0.283805
0.283803
0.283801
0.283797
0.28379
0.283778
0.28376
0.283731
0.283686
0.283621
0.283527
0.283394
0.283208
0.282964
0.282679
0.282209
0.281577
0.2808
0.279637
0.277957
0.275285
0.270524
0.300914
0.296783
0.293775
0.291467
0.289891
0.288655
0.287727
0.287124
0.286661
0.28636
0.286216
0.28608
0.285993
0.285936
0.285899
0.285876
0.285861
0.285851
0.285844
0.28584
0.285838
0.285836
0.285835
0.285834
0.285833
0.285833
0.285832
0.285832
0.285831
0.28583
0.285828
0.285824
0.285818
0.285807
0.285789
0.285762
0.28572
0.285657
0.285567
0.285439
0.285259
0.285084
0.284747
0.284292
0.283678
0.28292
0.281777
0.280124
0.277533
0.27276
0.302525
0.298492
0.295591
0.293428
0.29183
0.290638
0.289712
0.289126
0.288672
0.288408
0.288236
0.288102
0.288015
0.287959
0.287923
0.2879
0.287885
0.287875
0.287869
0.287865
0.287862
0.28786
0.287859
0.287858
0.287858
0.287857
0.287857
0.287856
0.287856
0.287855
0.287853
0.287849
0.287843
0.287833
0.287816
0.28779
0.28775
0.287691
0.287604
0.28748
0.287307
0.28714
0.286815
0.286374
0.285778
0.285039
0.283914
0.282288
0.279749
0.275059
0.304156
0.300209
0.297409
0.29532
0.293757
0.2926
0.291699
0.291129
0.290684
0.290384
0.290255
0.290123
0.290038
0.289982
0.289947
0.289924
0.289909
0.289899
0.289893
0.289889
0.289886
0.289885
0.289883
0.289883
0.289882
0.289882
0.289881
0.289881
0.28988
0.289879
0.289877
0.289874
0.289868
0.289859
0.289843
0.289818
0.28978
0.289724
0.289641
0.289522
0.289356
0.289126
0.288884
0.288459
0.287881
0.287103
0.28605
0.28445
0.281941
0.27728
0.305756
0.301939
0.299235
0.297216
0.295689
0.294562
0.293692
0.293135
0.292697
0.292402
0.292205
0.292118
0.292062
0.292008
0.291972
0.29195
0.291935
0.291925
0.291919
0.291915
0.291913
0.291911
0.29191
0.291909
0.291908
0.291908
0.291908
0.291907
0.291907
0.291906
0.291904
0.291901
0.291895
0.291886
0.291872
0.291848
0.291813
0.291759
0.29168
0.291567
0.291408
0.291189
0.290888
0.290549
0.289987
0.289207
0.288118
0.286615
0.284133
0.27951
0.307429
0.303686
0.301072
0.299119
0.297605
0.296473
0.295691
0.295074
0.294715
0.294424
0.294231
0.294103
0.29402
0.293967
0.293932
0.29391
0.293895
0.293886
0.29388
0.293876
0.293873
0.293871
0.29387
0.293869
0.293869
0.293869
0.293868
0.293868
0.293867
0.293866
0.293865
0.293862
0.293857
0.293849
0.293835
0.293813
0.293785
0.293761
0.293724
0.293619
0.293468
0.293259
0.292971
0.292575
0.292057
0.291333
0.290263
0.288712
0.286279
0.281784
0.309078
0.305455
0.302923
0.300959
0.29951
0.29846
0.297697
0.297091
0.296668
0.296455
0.296265
0.29614
0.296059
0.296006
0.295972
0.29595
0.295936
0.295926
0.29592
0.295917
0.295914
0.295912
0.295911
0.295911
0.29591
0.29591
0.295909
0.295909
0.295908
0.295907
0.295906
0.295903
0.295899
0.295892
0.295879
0.295859
0.295828
0.295781
0.295712
0.295611
0.295469
0.295269
0.295065
0.294682
0.294147
0.293395
0.292346
0.290888
0.288458
0.284001
0.310831
0.307248
0.304793
0.302884
0.301477
0.300459
0.299642
0.299118
0.298704
0.298425
0.29824
0.298119
0.298039
0.297988
0.297954
0.297939
0.297931
0.297925
0.297921
0.297919
0.297917
0.297916
0.297915
0.297915
0.297914
0.297914
0.297914
0.297914
0.297913
0.297913
0.297912
0.297911
0.297909
0.297906
0.2979
0.297891
0.297877
0.297848
0.297783
0.297689
0.297555
0.297365
0.297101
0.296729
0.296206
0.295539
0.294512
0.293004
0.290668
0.286223
0.312544
0.308995
0.306612
0.304823
0.30339
0.302401
0.30167
0.301087
0.300684
0.300465
0.300305
0.300186
0.300109
0.300059
0.300026
0.300005
0.299992
0.299983
0.299977
0.299973
0.299971
0.299969
0.299968
0.299968
0.299967
0.299967
0.299967
0.299966
0.299966
0.299965
0.299964
0.299963
0.299959
0.299953
0.299944
0.299927
0.299902
0.299862
0.299802
0.299714
0.299587
0.299406
0.299151
0.298845
0.298349
0.297627
0.296623
0.29519
0.292819
0.288381
0.314286
0.310828
0.308524
0.306712
0.305394
0.304359
0.303643
0.303075
0.302755
0.302494
0.30232
0.302205
0.30213
0.302081
0.30205
0.302029
0.302016
0.302007
0.302002
0.301998
0.301996
0.301994
0.301993
0.301992
0.301992
0.301992
0.301991
0.301991
0.301991
0.30199
0.30199
0.301988
0.301985
0.30198
0.301972
0.301957
0.301934
0.301897
0.301842
0.301759
0.301639
0.301501
0.30129
0.300938
0.300437
0.299733
0.298752
0.297352
0.295058
0.290622
0.31606
0.312641
0.31039
0.308624
0.307349
0.306407
0.305638
0.305158
0.304782
0.304529
0.304361
0.30425
0.304177
0.30413
0.304099
0.304079
0.304066
0.304057
0.304052
0.304048
0.304046
0.304045
0.304044
0.304043
0.304043
0.304042
0.304042
0.304042
0.304042
0.304041
0.304041
0.304039
0.304037
0.304033
0.304025
0.304012
0.303991
0.303957
0.303925
0.303876
0.303784
0.303617
0.303377
0.303033
0.302545
0.301861
0.300903
0.299522
0.297246
0.292879
0.317867
0.314472
0.312283
0.310635
0.309329
0.308408
0.307659
0.307199
0.306838
0.306595
0.306432
0.306324
0.306253
0.306216
0.306197
0.306184
0.306176
0.306171
0.306167
0.306165
0.306163
0.306162
0.306161
0.306161
0.306161
0.306161
0.30616
0.30616
0.30616
0.30616
0.306159
0.306158
0.306157
0.306154
0.30615
0.306143
0.306131
0.306112
0.306066
0.305992
0.305881
0.30572
0.305487
0.305152
0.304678
0.304016
0.303079
0.301719
0.299459
0.295086
0.319713
0.316336
0.314277
0.312608
0.311344
0.310438
0.309753
0.309274
0.308927
0.308692
0.308535
0.308429
0.30838
0.308352
0.308333
0.30832
0.308312
0.308307
0.308303
0.308301
0.3083
0.308299
0.308298
0.308298
0.308297
0.308297
0.308297
0.308297
0.308297
0.308296
0.308296
0.308295
0.308293
0.308291
0.308287
0.308278
0.30826
0.30823
0.308183
0.308112
0.308006
0.30785
0.307623
0.307299
0.306841
0.306201
0.305285
0.303945
0.301703
0.297388
0.321533
0.318237
0.316235
0.314615
0.313432
0.312502
0.311859
0.311387
0.311053
0.310826
0.310672
0.310569
0.310507
0.310479
0.31046
0.310448
0.31044
0.310435
0.310431
0.310429
0.310427
0.310426
0.310426
0.310425
0.310425
0.310425
0.310425
0.310424
0.310424
0.310424
0.310423
0.310422
0.310421
0.310418
0.310414
0.310407
0.310396
0.310377
0.310332
0.310264
0.310161
0.31001
0.309791
0.309479
0.309039
0.30842
0.307523
0.306206
0.303981
0.29965
0.323474
0.320191
0.318231
0.316661
0.315519
0.314607
0.313968
0.313541
0.313218
0.312997
0.312846
0.312746
0.312679
0.312636
0.312608
0.31259
0.312578
0.31257
0.312565
0.312562
0.31256
0.312558
0.312557
0.312557
0.312556
0.312556
0.312556
0.312556
0.312555
0.312555
0.312555
0.312554
0.312552
0.312549
0.312543
0.312536
0.312525
0.312507
0.312478
0.312432
0.312352
0.312206
0.311996
0.311698
0.311277
0.310678
0.309799
0.308506
0.306299
0.302017
0.325471
0.322174
0.32027
0.318751
0.317615
0.316758
0.316117
0.31574
0.315426
0.315209
0.315062
0.314963
0.314898
0.314856
0.314828
0.31481
0.314799
0.314791
0.314786
0.314783
0.314781
0.314779
0.314779
0.314778
0.314778
0.314777
0.314777
0.314777
0.314776
0.314776
0.314775
0.314774
0.314773
0.314769
0.314763
0.314754
0.314737
0.314711
0.31467
0.314607
0.314512
0.314406
0.314245
0.313962
0.313559
0.312979
0.312118
0.310814
0.308662
0.304353
0.327461
0.324218
0.322359
0.32089
0.319748
0.318962
0.318348
0.317966
0.317679
0.317467
0.317322
0.317226
0.317163
0.317121
0.317094
0.317077
0.317065
0.317058
0.317053
0.31705
0.317048
0.317047
0.317046
0.317045
0.317045
0.317044
0.317044
0.317044
0.317043
0.317043
0.317042
0.317041
0.317039
0.317036
0.31703
0.317021
0.317005
0.31698
0.316941
0.316882
0.316792
0.316662
0.316474
0.316214
0.315883
0.315326
0.314484
0.313172
0.311074
0.306735
0.329588
0.326325
0.324505
0.323084
0.321974
0.321222
0.320633
0.320212
0.319965
0.319775
0.319634
0.31954
0.319479
0.319438
0.319412
0.319395
0.319384
0.319377
0.319372
0.319369
0.319367
0.319366
0.319365
0.319364
0.319364
0.319364
0.319363
0.319363
0.319363
0.319362
0.319362
0.319361
0.319359
0.319356
0.31935
0.319341
0.319327
0.319303
0.319267
0.319211
0.319128
0.319006
0.31883
0.318575
0.318205
0.317656
0.316834
0.31562
0.313543
0.309219
0.331718
0.328501
0.326715
0.325337
0.324262
0.323538
0.322976
0.322565
0.322272
0.322079
0.321993
0.321913
0.321853
0.321815
0.321789
0.321773
0.321762
0.321755
0.321751
0.321748
0.321746
0.321745
0.321744
0.321743
0.321743
0.321742
0.321742
0.321742
0.321742
0.321741
0.32174
0.321739
0.321738
0.321735
0.32173
0.321722
0.321708
0.321687
0.321654
0.321603
0.321526
0.321413
0.321247
0.321004
0.320647
0.320113
0.319314
0.318127
0.316073
0.311731
0.333991
0.330748
0.328994
0.327656
0.326617
0.325859
0.325382
0.324982
0.324696
0.324499
0.324368
0.324281
0.324225
0.324193
0.324176
0.324166
0.324158
0.324154
0.324151
0.324149
0.324147
0.324147
0.324146
0.324146
0.324145
0.324145
0.324145
0.324145
0.324145
0.324144
0.324144
0.324143
0.324142
0.324139
0.324136
0.32413
0.324121
0.324107
0.324084
0.324048
0.323991
0.323886
0.323729
0.323498
0.323152
0.322633
0.321859
0.320658
0.318671
0.314291
0.336268
0.333071
0.331346
0.330039
0.329044
0.328317
0.327835
0.327467
0.32719
0.327002
0.326877
0.326794
0.32674
0.326704
0.326681
0.326666
0.326656
0.32665
0.326645
0.326643
0.326641
0.32664
0.326639
0.326638