/*--------------------------------*- C++ -*----------------------------------*\
| =========                 |                                                 |
| \\      /  F ield         | OpenFOAM: The Open Source CFD Toolbox           |
|  \\    /   O peration     | Version:  v1912                                 |
|   \\  /    A nd           | Website:  www.openfoam.com                      |
|    \\/     M anipulation  |                                                 |
\*---------------------------------------------------------------------------*/
FoamFile
{
    version     2.0;
    format      ascii;
    class       volScalarField;
    location    "31536000";
    object      thetag;
}
// * * * * * * * * * * * * * * * * * * * * * * * * * * * * * * * * * * * * * //

dimensions      [0 0 0 0 0 0 0];


internalField   nonuniform List<scalar> 
4250
(
0.140888
0.139288
0.139245
0.139231
0.13923
0.139228
0.139227
0.139227
0.139227
0.139227
0.139227
0.139227
0.139227
0.139227
0.139227
0.139227
0.139227
0.139227
0.139227
0.139227
0.139227
0.139227
0.139227
0.139227
0.139227
0.139227
0.139227
0.139227
0.139227
0.139227
0.139227
0.139227
0.139227
0.139227
0.139227
0.139227
0.139227
0.139227
0.139227
0.139226
0.139226
0.139226
0.139226
0.139226
0.139226
0.139226
0.139226
0.139226
0.139226
0.139226
0.144623
0.139689
0.139331
0.139252
0.139246
0.139237
0.139231
0.13923
0.139229
0.139229
0.139229
0.139229
0.139229
0.139229
0.139229
0.139229
0.139229
0.139229
0.139229
0.139229
0.139229
0.139229
0.139229
0.139229
0.139229
0.139229
0.139229
0.139229
0.139229
0.139229
0.139229
0.139229
0.139228
0.139229
0.139228
0.139228
0.139228
0.139228
0.139228
0.139227
0.139227
0.139226
0.139226
0.139225
0.139224
0.139224
0.139223
0.139223
0.139223
0.139224
0.152738
0.141597
0.139794
0.139372
0.13935
0.1393
0.139266
0.139256
0.139255
0.139254
0.139253
0.139253
0.139253
0.139253
0.139253
0.139253
0.139253
0.139253
0.139253
0.139253
0.139253
0.139253
0.139253
0.139253
0.139253
0.139253
0.139253
0.139253
0.139253
0.139252
0.139252
0.139252
0.139252
0.139252
0.139252
0.139251
0.139251
0.139251
0.13925
0.139249
0.139247
0.139245
0.13924
0.139232
0.139228
0.139227
0.139224
0.139222
0.139222
0.139222
0.171483
0.147345
0.141733
0.139921
0.139834
0.139612
0.139434
0.139387
0.13938
0.139379
0.139377
0.139376
0.139376
0.139375
0.139375
0.139375
0.139375
0.139375
0.139375
0.139375
0.139375
0.139375
0.139375
0.139375
0.139375
0.139375
0.139374
0.139374
0.139374
0.139374
0.139374
0.139374
0.139373
0.139373
0.139372
0.139371
0.13937
0.139368
0.139366
0.139362
0.139356
0.139346
0.139323
0.139279
0.139255
0.139251
0.139236
0.139226
0.139222
0.139221
0.181293
0.153899
0.147211
0.142108
0.141657
0.140789
0.140116
0.139944
0.13992
0.139913
0.139908
0.139905
0.139903
0.139901
0.139901
0.1399
0.1399
0.139899
0.139899
0.139899
0.139899
0.139899
0.139899
0.139899
0.139899
0.139899
0.139899
0.139898
0.139898
0.139898
0.139897
0.139896
0.139895
0.139893
0.139891
0.139887
0.139882
0.139876
0.139866
0.139851
0.139829
0.13979
0.139696
0.13949
0.139384
0.139371
0.139303
0.139252
0.139226
0.139221
0.188514
0.164717
0.153251
0.148656
0.14632
0.143879
0.142407
0.142016
0.14193
0.141888
0.14186
0.141842
0.141831
0.141824
0.141819
0.141816
0.141814
0.141813
0.141812
0.141812
0.141811
0.141811
0.141811
0.14181
0.14181
0.14181
0.141809
0.141808
0.141807
0.141804
0.141801
0.141796
0.14179
0.14178
0.141767
0.141748
0.141722
0.141687
0.141638
0.141567
0.141465
0.141304
0.140976
0.140275
0.139917
0.139862
0.139589
0.139372
0.139254
0.139226
0.194279
0.173777
0.162029
0.156236
0.151458
0.149138
0.148251
0.147694
0.147338
0.14711
0.146965
0.146874
0.146819
0.146784
0.14676
0.146745
0.146736
0.146731
0.146727
0.146724
0.146722
0.14672
0.146719
0.146717
0.146716
0.146714
0.146711
0.146706
0.146699
0.146688
0.146673
0.14665
0.146616
0.146571
0.146506
0.14642
0.146301
0.146142
0.14593
0.145647
0.145265
0.144745
0.14395
0.142572
0.14182
0.141517
0.140555
0.139852
0.139378
0.139253
0.19924
0.181119
0.170147
0.163735
0.159165
0.156682
0.154965
0.15381
0.153032
0.152571
0.152288
0.152102
0.151998
0.151939
0.151893
0.151857
0.151847
0.151841
0.151835
0.151825
0.151818
0.151813
0.151808
0.151805
0.151803
0.151801
0.151798
0.151794
0.151783
0.151755
0.151734
0.151696
0.151626
0.151554
0.151434
0.151291
0.151088
0.15082
0.150492
0.150079
0.149567
0.148971
0.148326
0.147574
0.14663
0.145341
0.14297
0.141413
0.13987
0.139375
0.203786
0.187298
0.177091
0.170669
0.166596
0.16384
0.161788
0.160443
0.159582
0.15908
0.158755
0.158552
0.158438
0.158379
0.158327
0.158317
0.158292
0.158274
0.158262
0.158254
0.158248
0.158243
0.15824
0.158236
0.158231
0.158227
0.158225
0.158222
0.158218
0.158211
0.158166
0.15812
0.158065
0.157992
0.157868
0.157716
0.157517
0.157237
0.156907
0.156488
0.15595
0.155265
0.154392
0.153263
0.151611
0.149505
0.147329
0.144855
0.141454
0.139828
0.207973
0.192686
0.183131
0.176971
0.173239
0.170395
0.168304
0.166996
0.166157
0.165678
0.165392
0.165204
0.165104
0.165017
0.164955
0.164944
0.164939
0.164936
0.164929
0.164922
0.164917
0.164913
0.16491
0.164908
0.164904
0.164899
0.164892
0.164881
0.164865
0.164841
0.164804
0.164782
0.164735
0.164631
0.164535
0.164391
0.164177
0.163936
0.163582
0.163147
0.162582
0.161842
0.16084
0.159463
0.15757
0.155265
0.152524
0.148714
0.144908
0.141158
0.211905
0.197571
0.188485
0.182638
0.179081
0.176227
0.174278
0.173064
0.17231
0.171853
0.171552
0.171391
0.171304
0.17123
0.171174
0.171138
0.171115
0.171101
0.171092
0.17109
0.17109
0.171089
0.171089
0.171089
0.171088
0.171088
0.171087
0.171086
0.171084
0.171081
0.171048
0.171001
0.170932
0.170878
0.170763
0.170641
0.170454
0.170183
0.169851
0.169413
0.168836
0.168056
0.167004
0.165625
0.163753
0.161512
0.158453
0.153971
0.148664
0.143826
0.215661
0.202023
0.193284
0.187808
0.18432
0.181608
0.179763
0.178616
0.177908
0.177498
0.177221
0.177007
0.176942
0.176858
0.176805
0.176771
0.176749
0.176735
0.176726
0.17672
0.176716
0.176714
0.176714
0.176713
0.176713
0.176713
0.176712
0.176712
0.176711
0.176709
0.176693
0.176649
0.176585
0.176494
0.176433
0.176256
0.176085
0.175832
0.175474
0.175048
0.174449
0.173701
0.172716
0.171367
0.169659
0.167537
0.164425
0.159915
0.153587
0.147033
0.219202
0.206169
0.19772
0.192524
0.189105
0.186537
0.184799
0.183717
0.183033
0.182579
0.182314
0.182173
0.182044
0.181962
0.181909
0.181905
0.181902
0.1819
0.181899
0.181894
0.18189
0.181888
0.181885
0.181883
0.181881
0.181877
0.181872
0.181864
0.181852
0.181833
0.181805
0.181764
0.181703
0.181616
0.181562
0.181393
0.181232
0.180993
0.180655
0.180188
0.179625
0.178919
0.177944
0.176704
0.175146
0.173117
0.170086
0.165828
0.159223
0.151119
0.222548
0.210094
0.20192
0.196957
0.193555
0.191104
0.189443
0.188408
0.18775
0.187307
0.187048
0.186841
0.18678
0.186701
0.186649
0.186617
0.186595
0.186582
0.186573
0.186567
0.186563
0.186561
0.186558
0.186556
0.186554
0.18655
0.186546
0.186538
0.186527
0.186509
0.186482
0.186443
0.186435
0.18637
0.186253
0.186108
0.185941
0.185717
0.185398
0.184959
0.184427
0.18373
0.182787
0.181693
0.18023
0.178257
0.175384
0.171307
0.164933
0.156069
0.225783
0.21378
0.205828
0.20107
0.197752
0.19541
0.193813
0.192773
0.192129
0.191693
0.191403
0.191235
0.191108
0.191028
0.191004
0.190999
0.190993
0.19098
0.190971
0.190966
0.190962
0.190959
0.190957
0.190955
0.190952
0.190949
0.190945
0.190938
0.190927
0.19091
0.190885
0.190847
0.190792
0.190713
0.190635
0.190517
0.190308
0.190099
0.189801
0.189392
0.188846
0.188197
0.187339
0.186288
0.184904
0.183038
0.180266
0.176415
0.170333
0.161333
0.228778
0.217261
0.209569
0.204925
0.201725
0.19946
0.197886
0.196841
0.196206
0.195777
0.195528
0.195327
0.195202
0.195123
0.195103
0.195098
0.19509
0.195077
0.195069
0.195063
0.195059
0.195057
0.195054
0.195052
0.19505
0.195047
0.195043
0.195036
0.195026
0.195011
0.194987
0.194952
0.1949
0.194825
0.194719
0.194643
0.194446
0.194252
0.193912
0.193526
0.193089
0.192425
0.191636
0.190601
0.189278
0.187479
0.184849
0.181191
0.175377
0.166513
0.23169
0.220634
0.213111
0.2086
0.205469
0.203306
0.201777
0.200748
0.200056
0.199636
0.199393
0.199196
0.199073
0.198996
0.198977
0.198973
0.198965
0.198952
0.198944
0.198938
0.198935
0.198932
0.19893
0.198928
0.198926
0.198923
0.198919
0.198913
0.198904
0.198889
0.198867
0.198834
0.198785
0.198715
0.198616
0.198548
0.198362
0.19813
0.197858
0.197505
0.197033
0.196414
0.195681
0.194704
0.193452
0.191674
0.18919
0.185635
0.18008
0.171483
0.234465
0.223848
0.216483
0.212085
0.209007
0.206923
0.205427
0.204416
0.203738
0.203328
0.20303
0.202899
0.202779
0.202703
0.202655
0.202624
0.202605
0.202592
0.202584
0.202579
0.202575
0.202573
0.202571
0.202569
0.202567
0.202564
0.202561
0.202555
0.202546
0.202533
0.202528
0.202527
0.202506
0.20244
0.202347
0.202218
0.202087
0.201878
0.201633
0.201242
0.2008
0.200235
0.199527
0.198598
0.197333
0.195648
0.193334
0.189898
0.184519
0.17617
0.237052
0.226918
0.219774
0.215397
0.212457
0.210413
0.208878
0.207887
0.207226
0.206825
0.206596
0.206408
0.20629
0.206216
0.206169
0.206161
0.206157
0.206155
0.206153
0.206152
0.206151
0.206151
0.206151
0.20615
0.20615
0.20615
0.206148
0.206142
0.206134
0.206122
0.206103
0.206074
0.206031
0.20597
0.205882
0.20576
0.205665
0.205444
0.205214
0.204844
0.204428
0.203875
0.203201
0.202258
0.201045
0.199401
0.197208
0.19387
0.188727
0.18065
0.239607
0.22986
0.222931
0.218639
0.21577
0.213737
0.212231
0.211264
0.210618
0.21023
0.209938
0.209823
0.209708
0.209636
0.209589
0.20956
0.209541
0.209529
0.209521
0.209516
0.209512
0.20951
0.209508
0.209507
0.209505
0.209503
0.2095
0.209495
0.209488
0.209476
0.209458
0.209431
0.209391
0.209348
0.209321
0.209206
0.209049
0.208857
0.208632
0.208341
0.207875
0.207346
0.206717
0.205791
0.204629
0.20307
0.200919
0.197733
0.192765
0.184909
0.242084
0.232687
0.225966
0.221688
0.218908
0.216918
0.215452
0.214502
0.213872
0.213495
0.213208
0.213086
0.212985
0.212913
0.212868
0.212839
0.21282
0.212808
0.2128
0.212795
0.212792
0.21279
0.212788
0.212786
0.212785
0.212783
0.21278
0.212775
0.212769
0.212758
0.212741
0.212716
0.212678
0.212624
0.212545
0.212507
0.212358
0.212157
0.211962
0.211615
0.211236
0.210727
0.210052
0.209159
0.208047
0.206565
0.204506
0.201389
0.196582
0.188962
0.244427
0.235412
0.228878
0.224702
0.221998
0.220047
0.218609
0.217621
0.217006
0.216638
0.216356
0.216248
0.216137
0.216066
0.216021
0.215992
0.215974
0.215962
0.215955
0.21595
0.215946
0.215944
0.215942
0.215941
0.215939
0.215937
0.215935
0.215931
0.215924
0.215914
0.215898
0.215875
0.215839
0.215787
0.215713
0.215679
0.215537
0.215344
0.215158
0.214824
0.21446
0.213969
0.213317
0.212456
0.21134
0.20991
0.207927
0.204938
0.200252
0.192828
0.246791
0.238087
0.231661
0.227622
0.224959
0.223
0.221599
0.220705
0.2201
0.219672
0.219462
0.219289
0.219178
0.219108
0.219063
0.219035
0.219017
0.219005
0.218997
0.218992
0.218989
0.218987
0.218985
0.218984
0.218982
0.218981
0.218978
0.218974
0.218968
0.218959
0.218944
0.218921
0.218888
0.218842
0.218838
0.218738
0.218601
0.218416
0.21824
0.217915
0.217565
0.217069
0.216429
0.215632
0.214545
0.213125
0.211205
0.208333
0.203818
0.196615
0.249043
0.240655
0.234383
0.230457
0.227802
0.225932
0.224568
0.223626
0.223036
0.222622
0.222405
0.22223
0.22212
0.22205
0.222006
0.221978
0.22196
0.221948
0.22194
0.221936
0.221935
0.221935
0.221934
0.221934
0.221934
0.221934
0.221934
0.221934
0.221934
0.221933
0.221933
0.221933
0.221907
0.221859
0.221791
0.221696
0.221563
0.221384
0.221217
0.220903
0.220565
0.2201
0.219444
0.218704
0.21766
0.216289
0.214432
0.211657
0.207232
0.200188
0.251259
0.243098
0.237043
0.233159
0.230611
0.228714
0.227385
0.226462
0.225881
0.22553
0.225257
0.225083
0.225015
0.224974
0.22493
0.224902
0.224884
0.224872
0.224865
0.22486
0.224856
0.224854
0.224853
0.224851
0.22485
0.224848
0.224846
0.224843
0.224837
0.224829
0.224816
0.224795
0.224765
0.22472
0.224654
0.224562
0.224435
0.224333
0.224102
0.223799
0.223474
0.223034
0.222407
0.221655
0.220679
0.219354
0.217481
0.214807
0.210515
0.203661
0.253442
0.245524
0.239634
0.235831
0.233347
0.231495
0.230193
0.229293
0.228719
0.2283
0.228049
0.227926
0.227817
0.227748
0.227703
0.227675
0.227657
0.227645
0.227638
0.227633
0.22763
0.227628
0.227626
0.227625
0.227623
0.227622
0.22762
0.227617
0.227611
0.227603
0.227591
0.227572
0.227543
0.227499
0.227437
0.227359
0.227297
0.22713
0.226908
0.226685
0.226303
0.225881
0.225308
0.224543
0.223613
0.222327
0.220508
0.217916
0.213752
0.207033
0.255589
0.247903
0.242166
0.238454
0.235947
0.234141
0.232876
0.231982
0.231415
0.231005
0.2308
0.230627
0.230518
0.230449
0.230406
0.230377
0.230359
0.230348
0.23034
0.230335
0.230332
0.23033
0.230328
0.230327
0.230326
0.230324
0.230322
0.230319
0.230315
0.230307
0.230295
0.230277
0.23025
0.230247
0.230219
0.230135
0.230017
0.229857
0.229643
0.229431
0.229062
0.228658
0.228119
0.227361
0.226441
0.225194
0.223452
0.220933
0.216856
0.210283
0.257674
0.250234
0.244629
0.241012
0.238562
0.2368
0.235489
0.234632
0.234046
0.233704
0.233437
0.233265
0.233157
0.233088
0.233074
0.233065
0.23306
0.233056
0.233051
0.233046
0.233042
0.23304
0.233039
0.233037
0.233036
0.233035
0.233033
0.23303
0.233026
0.233019
0.233008
0.23299
0.232964
0.232925
0.232868
0.232787
0.232675
0.232521
0.232386
0.232114
0.231759
0.231372
0.230854
0.230104
0.229186
0.227968
0.226323
0.223844
0.219858
0.213425
0.259698
0.25245
0.247005
0.243458
0.241054
0.239334
0.238117
0.237247
0.23664
0.236283
0.236017
0.235847
0.235811
0.235743
0.235699
0.235671
0.235653
0.235642
0.235635
0.23563
0.235626
0.235624
0.235623
0.235622
0.235621
0.235619
0.235618
0.235615
0.235611
0.235604
0.235594
0.235578
0.235553
0.235516
0.235462
0.235385
0.235278
0.235131
0.235004
0.234743
0.234401
0.23403
0.233531
0.232796
0.23191
0.230724
0.229095
0.226661
0.222818
0.216541
0.261655
0.254695
0.249394
0.245901
0.243563
0.241817
0.240622
0.239763
0.239216
0.238811
0.238549
0.238451
0.238345
0.238277
0.238234
0.238206
0.238189
0.238177
0.23817
0.238165
0.238162
0.23816
0.238158
0.238157
0.238156
0.238155
0.238153
0.238151
0.238147
0.238141
0.238131
0.238116
0.238093
0.238058
0.238007
0.237934
0.237832
0.237722
0.237573
0.237322
0.236993
0.236637
0.236142
0.23544
0.234577
0.233422
0.2318
0.229459
0.225706
0.219502
0.26364
0.256828
0.25167
0.248268
0.245973
0.244325
0.243079
0.242234
0.241694
0.241295
0.241036
0.240941
0.240835
0.240768
0.240725
0.240698
0.24068
0.240669
0.240662
0.240657
0.240654
0.240652
0.24065
0.240649
0.240648
0.240647
0.240645
0.240643
0.24064
0.240634
0.240625
0.240611
0.240589
0.240557
0.240508
0.240439
0.240342
0.240227
0.240097
0.239856
0.239539
0.239196
0.238659
0.238033
0.237192
0.236068
0.234489
0.232199
0.228529
0.222456
0.265514
0.258921
0.253909
0.250578
0.248335
0.246719
0.245494
0.244663
0.244133
0.24374
0.243484
0.243385
0.243286
0.24322
0.243178
0.243151
0.243133
0.243122
0.243115
0.24311
0.243107
0.243105
0.243103
0.243102
0.243101
0.2431
0.243099
0.243097
0.243094
0.243088
0.24308
0.243067
0.243047
0.243016
0.24297
0.242905
0.242812
0.242684
0.242581
0.242348
0.242042
0.241712
0.241189
0.240579
0.23976
0.238596
0.237128
0.234887
0.231293
0.225343
0.267353
0.260978
0.256111
0.252852
0.25066
0.249074
0.247871
0.247056
0.246536
0.246149
0.245897
0.245734
0.245656
0.245632
0.245594
0.245567
0.24555
0.245539
0.245532
0.245527
0.245524
0.245522
0.24552
0.245519
0.245518
0.245518
0.245516
0.245514
0.245511
0.245507
0.245499
0.245487
0.245468
0.245439
0.245396
0.245333
0.245245
0.245122
0.244955
0.244802
0.244505
0.244115
0.243677
0.243038
0.242216
0.241153
0.23965
0.237455
0.234004
0.228097
0.269164
0.263
0.258278
0.255095
0.252949
0.251392
0.250215
0.249417
0.248836
0.248525
0.248276
0.248116
0.248013
0.247948
0.247906
0.247879
0.247862
0.247851
0.247844
0.247839
0.247836
0.247834
0.247833
0.247832
0.247831
0.24783
0.247829
0.247827
0.247824
0.24782
0.247813
0.247801
0.247784
0.247774
0.247767
0.247727
0.247643
0.247525
0.247364
0.247147
0.24693
0.246551
0.24606
0.245479
0.244706
0.243601
0.2422
0.240052
0.236596
0.230866
0.270885
0.264991
0.260412
0.257308
0.255207
0.253611
0.252506
0.251676
0.251176
0.250799
0.250625
0.250466
0.250364
0.250299
0.250258
0.250231
0.250214
0.250203
0.250196
0.250191
0.250188
0.250186
0.250185
0.250184
0.250183
0.250182
0.250181
0.250179
0.250177
0.250173
0.250166
0.250155
0.250139
0.250113
0.250074
0.250017
0.249936
0.249823
0.249739
0.249529
0.24925
0.248906
0.24847
0.247876
0.24709
0.246083
0.244641
0.242537
0.239216
0.233585
0.272665
0.266885
0.262517
0.259493
0.257363
0.255871
0.254744
0.253979
0.253444
0.253116
0.252872
0.252714
0.252614
0.252549
0.252508
0.252481
0.25247
0.252464
0.252461
0.252459
0.252458
0.252457
0.252456
0.252456
0.252455
0.252455
0.252455
0.252454
0.252454
0.252453
0.252452
0.252451
0.252448
0.252439
0.252402
0.252348
0.25227
0.252162
0.252012
0.251809
0.251603
0.251252
0.250784
0.250243
0.249456
0.248462
0.247046
0.245057
0.241796
0.236186
0.274369
0.268829
0.264574
0.26158
0.259564
0.258036
0.257006
0.256185
0.255701
0.255333
0.255111
0.255007
0.254906
0.254842
0.254801
0.254775
0.254758
0.254747
0.25474
0.254735
0.254732
0.25473
0.254729
0.254728
0.254727
0.254726
0.254725
0.254724
0.254722
0.254718
0.254712
0.254703
0.254688
0.254665
0.25463
0.254579
0.254505
0.2544
0.254256
0.254131
0.25387
0.253523
0.253141
0.252547
0.25184
0.250809
0.249477
0.247472
0.244268
0.238815
0.27607
0.270684
0.266579
0.263715
0.26167
0.260249
0.259174
0.258437
0.257889
0.257577
0.257357
0.257202
0.257102
0.257038
0.256998
0.256971
0.256954
0.256944
0.256936
0.256932
0.256929
0.256927
0.256926
0.256925
0.256924
0.256923
0.256922
0.256921
0.256919
0.256916
0.25691
0.256901
0.256887
0.256866
0.256833
0.256784
0.256713
0.256629
0.256546
0.256357
0.256105
0.255771
0.255403
0.254826
0.254139
0.253129
0.251838
0.249856
0.246736
0.241334
0.277817
0.272597
0.268543
0.265757
0.263826
0.262372
0.261319
0.260595
0.260053
0.259764
0.259527
0.259373
0.259275
0.259211
0.259171
0.259145
0.259128
0.259117
0.25911
0.259106
0.259103
0.259101
0.259099
0.259098
0.259098
0.259097
0.259096
0.259095
0.259093
0.25909
0.259085
0.259077
0.259064
0.259044
0.259012
0.258966
0.25892
0.258875
0.258742
0.258562
0.258319
0.257996
0.257643
0.257084
0.256414
0.255424
0.254155
0.252212
0.249185
0.243888
0.27947
0.274428
0.270563
0.267783
0.265895
0.264475
0.263443
0.262731
0.262196
0.261912
0.261678
0.261525
0.261428
0.261365
0.261325
0.261299
0.261282
0.261271
0.261265
0.26126
0.261257
0.261255
0.261254
0.261253
0.261252
0.261252
0.261251
0.26125
0.261248
0.261245
0.261241
0.261233
0.261221
0.261202
0.261173
0.261129
0.261086
0.261046
0.26092
0.260747
0.260514
0.260204
0.259864
0.25932
0.258667
0.257696
0.256386
0.254542
0.251565
0.246337
0.281166
0.276248
0.272498
0.269853
0.267947
0.266561
0.265548
0.264848
0.264321
0.264042
0.263811
0.263661
0.263564
0.263502
0.263463
0.263437
0.263421
0.26341
0.263403
0.263399
0.263396
0.263394
0.263392
0.263392
0.263391
0.26339
0.26339
0.263389
0.263387
0.263385
0.26338
0.263374
0.263362
0.263345
0.263318
0.263277
0.263217
0.263131
0.263083
0.262918
0.262694
0.262395
0.26203
0.261539
0.260829
0.259948
0.258665
0.256851
0.25392
0.248757
0.282854
0.278059
0.274422
0.271819
0.269987
0.268631
0.267637
0.266949
0.266431
0.266086
0.265931
0.265783
0.265688
0.265627
0.265588
0.265563
0.265546
0.265536
0.265529
0.265525
0.265522
0.26552
0.265519
0.265518
0.265517
0.265517
0.265516
0.265515
0.265514
0.265512
0.265508
0.265502
0.265492
0.265475
0.26545
0.265412
0.265356
0.265275
0.265161
0.265004
0.264861
0.264572
0.264186
0.263732
0.263045
0.262122
0.260927
0.259141
0.256252
0.251151
0.284462
0.279789
0.276336
0.273751
0.272016
0.270688
0.269712
0.268967
0.26853
0.268193
0.26797
0.267825
0.267731
0.2677
0.26768
0.267667
0.267659
0.267653
0.267646
0.267642
0.267639
0.267637
0.267636
0.267635
0.267634
0.267634
0.267633
0.267632
0.267631
0.267629
0.267626
0.26762
0.267611
0.267596
0.267573
0.267537
0.267485
0.267408
0.2673
0.26715
0.266944
0.266666
0.266361
0.265856
0.265211
0.264334
0.263104
0.261344
0.258567
0.253521
0.286132
0.281582
0.278169
0.275722
0.273963
0.272661
0.271705
0.271047
0.270551
0.270291
0.270073
0.269931
0.269839
0.269779
0.269741
0.269717
0.269701
0.269691
0.269684
0.26968
0.269677
0.269675
0.269674
0.269673
0.269673
0.269672
0.269672
0.269671
0.26967
0.269668
0.269665
0.269661
0.269652
0.269639
0.269617
0.269584
0.269534
0.269462
0.269359
0.269265
0.269088
0.268818
0.268452
0.267995
0.267364
0.266473
0.265339
0.263606
0.260794
0.255871
0.287725
0.283338
0.280067
0.277687
0.275972
0.274696
0.273762
0.273051
0.272638
0.272314
0.2721
0.27196
0.27187
0.271811
0.271774
0.271751
0.271742
0.271737
0.271733
0.27173
0.271729
0.271728
0.271727
0.271727
0.271726
0.271726
0.271726
0.271726
0.271725
0.271725
0.271724
0.271722
0.27172
0.271716
0.271709
0.271695
0.271649
0.27158
0.271482
0.271344
0.271152
0.27089
0.270565
0.270123
0.269474
0.268675
0.267492
0.265785
0.26308
0.258205
0.289317
0.285076
0.281887
0.279578
0.277905
0.276654
0.275745
0.275124
0.27465
0.274333
0.274134
0.274057
0.273968
0.273911
0.273874
0.27385
0.273835
0.273825
0.273818
0.273814
0.273811
0.273809
0.273808
0.273807
0.273807
0.273806
0.273806
0.273806
0.273805
0.273803
0.273801
0.273797
0.27379
0.273778
0.27376
0.273731
0.273686
0.273621
0.273527
0.273394
0.273208
0.272964
0.272679
0.272209
0.271577
0.2708
0.269637
0.267957
0.265285
0.260524
0.290914
0.286783
0.283775
0.281467
0.279891
0.278655
0.277727
0.277124
0.276661
0.27636
0.276216
0.27608
0.275993
0.275936
0.275899
0.275876
0.275861
0.275851
0.275844
0.27584
0.275838
0.275836
0.275835
0.275834
0.275833
0.275833
0.275832
0.275832
0.275831
0.27583
0.275828
0.275824
0.275818
0.275807
0.275789
0.275762
0.27572
0.275657
0.275567
0.275439
0.275259
0.275084
0.274747
0.274292
0.273678
0.27292
0.271777
0.270124
0.267533
0.26276
0.292525
0.288492
0.285591
0.283428
0.28183
0.280638
0.279712
0.279126
0.278672
0.278408
0.278236
0.278102
0.278015
0.277959
0.277923
0.2779
0.277885
0.277875
0.277869
0.277865
0.277862
0.27786
0.277859
0.277858
0.277858
0.277857
0.277857
0.277856
0.277856
0.277855
0.277853
0.277849
0.277843
0.277833
0.277816
0.27779
0.27775
0.277691
0.277604
0.27748
0.277307
0.27714
0.276815
0.276374
0.275778
0.275039
0.273914
0.272288
0.269749
0.265059
0.294156
0.290209
0.287409
0.28532
0.283757
0.2826
0.281699
0.281129
0.280684
0.280384
0.280255
0.280123
0.280038
0.279982
0.279947
0.279924
0.279909
0.279899
0.279893
0.279889
0.279886
0.279885
0.279883
0.279883
0.279882
0.279882
0.279881
0.279881
0.27988
0.279879
0.279877
0.279874
0.279868
0.279859
0.279843
0.279818
0.27978
0.279724
0.279641
0.279522
0.279356
0.279126
0.278884
0.278459
0.277881
0.277103
0.27605
0.27445
0.271941
0.26728
0.295756
0.291939
0.289235
0.287216
0.285689
0.284562
0.283692
0.283135
0.282697
0.282402
0.282205
0.282118
0.282062
0.282008
0.281972
0.28195
0.281935
0.281925
0.281919
0.281915
0.281913
0.281911
0.28191
0.281909
0.281908
0.281908
0.281908
0.281907
0.281907
0.281906
0.281904
0.281901
0.281895
0.281886
0.281872
0.281848
0.281813
0.281759
0.28168
0.281567
0.281408
0.281189
0.280888
0.280549
0.279987
0.279207
0.278118
0.276615
0.274133
0.26951
0.297429
0.293686
0.291072
0.289119
0.287605
0.286473
0.285691
0.285074
0.284715
0.284424
0.284231
0.284103
0.28402
0.283967
0.283932
0.28391
0.283895
0.283886
0.28388
0.283876
0.283873
0.283871
0.28387
0.283869
0.283869
0.283869
0.283868
0.283868
0.283867
0.283866
0.283865
0.283862
0.283857
0.283849
0.283835
0.283813
0.283785
0.283761
0.283724
0.283619
0.283468
0.283259
0.282971
0.282575
0.282057
0.281333
0.280263
0.278712
0.276279
0.271784
0.299078
0.295455
0.292923
0.290959
0.28951
0.28846
0.287697
0.287091
0.286668
0.286455
0.286265
0.28614
0.286059
0.286006
0.285972
0.28595
0.285936
0.285926
0.28592
0.285917
0.285914
0.285912
0.285911
0.285911
0.28591
0.28591
0.285909
0.285909
0.285908
0.285907
0.285906
0.285903
0.285899
0.285892
0.285879
0.285859
0.285828
0.285781
0.285712
0.285611
0.285469
0.285269
0.285065
0.284682
0.284147
0.283395
0.282346
0.280888
0.278458
0.274001
0.300831
0.297248
0.294793
0.292884
0.291477
0.290459
0.289642
0.289118
0.288704
0.288425
0.28824
0.288119
0.288039
0.287988
0.287954
0.287939
0.287931
0.287925
0.287921
0.287919
0.287917
0.287916
0.287915
0.287915
0.287914
0.287914
0.287914
0.287914
0.287913
0.287913
0.287912
0.287911
0.287909
0.287906
0.2879
0.287891
0.287877
0.287848
0.287783
0.287689
0.287555
0.287365
0.287101
0.286729
0.286206
0.285539
0.284512
0.283004
0.280668
0.276223
0.302544
0.298995
0.296612
0.294823
0.29339
0.292401
0.29167
0.291087
0.290684
0.290465
0.290305
0.290186
0.290109
0.290059
0.290026
0.290005
0.289992
0.289983
0.289977
0.289973
0.289971
0.289969
0.289968
0.289968
0.289967
0.289967
0.289967
0.289966
0.289966
0.289965
0.289964
0.289963
0.289959
0.289953
0.289944
0.289927
0.289902
0.289862
0.289802
0.289714
0.289587
0.289406
0.289151
0.288845
0.288349
0.287627
0.286623
0.28519
0.282819
0.278381
0.304286
0.300828
0.298524
0.296712
0.295394
0.294359
0.293643
0.293075
0.292755
0.292494
0.29232
0.292205
0.29213
0.292081
0.29205
0.292029
0.292016
0.292007
0.292002
0.291998
0.291996
0.291994
0.291993
0.291992
0.291992
0.291992
0.291991
0.291991
0.291991
0.29199
0.29199
0.291988
0.291985
0.29198
0.291972
0.291957
0.291934
0.291897
0.291842
0.291759
0.291639
0.291501
0.29129
0.290938
0.290437
0.289733
0.288752
0.287352
0.285058
0.280622
0.30606
0.302641
0.30039
0.298624
0.297349
0.296407
0.295638
0.295158
0.294782
0.294529
0.294361
0.29425
0.294177
0.29413
0.294099
0.294079
0.294066
0.294057
0.294052
0.294048
0.294046
0.294045
0.294044
0.294043
0.294043
0.294042
0.294042
0.294042
0.294042
0.294041
0.294041
0.294039
0.294037
0.294033
0.294025
0.294012
0.293991
0.293957
0.293925
0.293876
0.293784
0.293617
0.293377
0.293033
0.292545
0.291861
0.290903
0.289522
0.287246
0.282879
0.307867
0.304472
0.302283
0.300635
0.299329
0.298408
0.297659
0.297199
0.296838
0.296595
0.296432
0.296324
0.296253
0.296216
0.296197
0.296184
0.296176
0.296171
0.296167
0.296165
0.296163
0.296162
0.296161
0.296161
0.296161
0.296161
0.29616
0.29616
0.29616
0.29616
0.296159
0.296158
0.296157
0.296154
0.29615
0.296143
0.296131
0.296112
0.296066
0.295992
0.295881
0.29572
0.295487
0.295152
0.294678
0.294016
0.293079
0.291719
0.289459
0.285086
0.309713
0.306336
0.304277
0.302608
0.301344
0.300438
0.299753
0.299274
0.298927
0.298692
0.298535
0.298429
0.29838
0.298352
0.298333
0.29832
0.298312
0.298307
0.298303
0.298301
0.2983
0.298299
0.298298
0.298298
0.298297
0.298297
0.298297
0.298297
0.298297
0.298296
0.298296
0.298295
0.298293
0.298291
0.298287
0.298278
0.29826
0.29823
0.298183
0.298112
0.298006
0.29785
0.297623
0.297299
0.296841
0.296201
0.295285
0.293945
0.291703
0.287388
0.311533
0.308237
0.306235
0.304615
0.303432
0.302502
0.301859
0.301387
0.301053
0.300826
0.300672
0.300569
0.300507
0.300479
0.30046
0.300448
0.30044
0.300435
0.300431
0.300429
0.300427
0.300426
0.300426
0.300425
0.300425
0.300425
0.300425
0.300424
0.300424
0.300424
0.300423
0.300422
0.300421
0.300418
0.300414
0.300407
0.300396
0.300377
0.300332
0.300264
0.300161
0.30001
0.299791
0.299479
0.299039
0.29842
0.297523
0.296206
0.293981
0.28965
0.313474
0.310191
0.308231
0.306661
0.305519
0.304607
0.303968
0.303541
0.303218
0.302997
0.302846
0.302746
0.302679
0.302636
0.302608
0.30259
0.302578
0.30257
0.302565
0.302562
0.30256
0.302558
0.302557
0.302557
0.302556
0.302556
0.302556
0.302556
0.302555
0.302555
0.302555
0.302554
0.302552
0.302549
0.302543
0.302536
0.302525
0.302507
0.302478
0.302432
0.302352
0.302206
0.301996
0.301698
0.301277
0.300678
0.299799
0.298506
0.296299
0.292017
0.315471
0.312174
0.31027
0.308751
0.307615
0.306758
0.306117
0.30574
0.305426
0.305209
0.305062
0.304963
0.304898
0.304856
0.304828
0.30481
0.304799
0.304791
0.304786
0.304783
0.304781
0.304779
0.304779
0.304778
0.304778
0.304777
0.304777
0.304777
0.304776
0.304776
0.304775
0.304774
0.304773
0.304769
0.304763
0.304754
0.304737
0.304711
0.30467
0.304607
0.304512
0.304406
0.304245
0.303962
0.303559
0.302979
0.302118
0.300814
0.298662
0.294353
0.317461
0.314218
0.312359
0.31089
0.309748
0.308962
0.308348
0.307966
0.307679
0.307467
0.307322
0.307226
0.307163
0.307121
0.307094
0.307077
0.307065
0.307058
0.307053
0.30705
0.307048
0.307047
0.307046
0.307045
0.307045
0.307044
0.307044
0.307044
0.307043
0.307043
0.307042
0.307041
0.307039
0.307036
0.30703
0.307021
0.307005
0.30698
0.306941
0.306882
0.306792
0.306662
0.306474
0.306214
0.305883
0.305326
0.304484
0.303172
0.301074
0.296735
0.319588
0.316325
0.314505
0.313084
0.311974
0.311222
0.310633
0.310212
0.309965
0.309775
0.309634
0.30954
0.309479
0.309438
0.309412
0.309395
0.309384
0.309377
0.309372
0.309369
0.309367
0.309366
0.309365
0.309364
0.309364
0.309364
0.309363
0.309363
0.309363
0.309362
0.309362
0.309361
0.309359
0.309356
0.30935
0.309341
0.309327
0.309303
0.309267
0.309211
0.309128
0.309006
0.30883
0.308575
0.308205
0.307656
0.306834
0.30562
0.303543
0.299219
0.321718
0.318501
0.316715
0.315337
0.314262
0.313538
0.312976
0.312565
0.312272
0.312079
0.311993
0.311913
0.311853
0.311815
0.311789
0.311773
0.311762
0.311755
0.311751
0.311748
0.311746
0.311745
0.311744
0.311743
0.311743
0.311742
0.311742
0.311742
0.311742
0.311741
0.31174
0.311739
0.311738
0.311735
0.31173
0.311722
0.311708
0.311687
0.311654
0.311603
0.311526
0.311413
0.311247
0.311004
0.310647
0.310113
0.309314
0.308127
0.306073
0.301731
0.323991
0.320748
0.318994
0.317656
0.316617
0.315859
0.315382
0.314982
0.314696
0.314499
0.314368
0.314281
0.314225
0.314193
0.314176
0.314166
0.314158
0.314154
0.314151
0.314149
0.314147
0.314147
0.314146
0.314146
0.314145
0.314145
0.314145
0.314145
0.314145
0.314144
0.314144
0.314143
0.314142
0.314139
0.314136
0.31413
0.314121
0.314107
0.314084
0.314048
0.313991
0.313886
0.313729
0.313498
0.313152
0.312633
0.311859
0.310658
0.308671
0.304291
0.326268
0.323071
0.321346
0.320039
0.319044
0.318317
0.317835
0.317467
0.31719
0.317002
0.316877
0.316794
0.31674
0.316704
0.316681
0.316666
0.316656
0.31665
0.316645
0.316643
0.316641
0.31664
0.316639
0.316638