/*--------------------------------*- C++ -*----------------------------------*\
| =========                 |                                                 |
| \\      /  F ield         | OpenFOAM: The Open Source CFD Toolbox           |
|  \\    /   O peration     | Version:  v1912                                 |
|   \\  /    A nd           | Website:  www.openfoam.com                      |
|    \\/     M anipulation  |                                                 |
\*---------------------------------------------------------------------------*/
FoamFile
{
    version     2.0;
    format      ascii;
    class       volScalarField;
    location    "31536000";
    object      Tvisu;
}
// * * * * * * * * * * * * * * * * * * * * * * * * * * * * * * * * * * * * * //

dimensions      [0 0 0 1 0 0 0];


internalField   nonuniform List<scalar> 
4250
(
-12.8
-12.7647
-12.7313
-12.7036
-12.6815
-12.664
-12.6502
-12.6393
-12.6305
-12.6232
-12.617
-12.6113
-12.6058
-12.6002
-12.5942
-12.5876
-12.5802
-12.5721
-12.5635
-12.5549
-12.5469
-12.5404
-12.5362
-12.5349
-12.5382
-12.5478
-12.5635
-12.5801
-12.5947
-12.608
-12.6205
-12.6327
-12.6445
-12.6558
-12.6663
-12.6756
-12.6835
-12.6897
-12.694
-12.696
-12.6958
-12.693
-12.6873
-12.6783
-12.6656
-12.6483
-12.6261
-12.5998
-12.5725
-12.5511
-12.8033
-12.768
-12.7345
-12.7067
-12.6845
-12.6669
-12.6531
-12.6421
-12.6333
-12.626
-12.6197
-12.614
-12.6086
-12.603
-12.5971
-12.5905
-12.5831
-12.575
-12.5665
-12.5578
-12.5498
-12.5433
-12.5391
-12.5378
-12.541
-12.5503
-12.5653
-12.582
-12.5965
-12.6097
-12.6223
-12.6344
-12.6462
-12.6574
-12.6679
-12.6772
-12.6851
-12.6913
-12.6956
-12.6977
-12.6975
-12.6947
-12.6891
-12.6802
-12.6675
-12.6504
-12.6283
-12.6021
-12.5746
-12.5527
-12.8092
-12.7736
-12.74
-12.7121
-12.6898
-12.6722
-12.6583
-12.6474
-12.6385
-12.6312
-12.625
-12.6193
-12.6139
-12.6083
-12.6024
-12.5958
-12.5885
-12.5805
-12.572
-12.5633
-12.5554
-12.5489
-12.5447
-12.5433
-12.5464
-12.5554
-12.5693
-12.5858
-12.6003
-12.6134
-12.6259
-12.6379
-12.6496
-12.6608
-12.6712
-12.6805
-12.6884
-12.6946
-12.6988
-12.7009
-12.7007
-12.698
-12.6924
-12.6837
-12.6711
-12.654
-12.6321
-12.6058
-12.5781
-12.5557
-12.8171
-12.7814
-12.7477
-12.7197
-12.6974
-12.6798
-12.6659
-12.6549
-12.6461
-12.6388
-12.6325
-12.6269
-12.6215
-12.616
-12.6101
-12.6036
-12.5964
-12.5884
-12.5799
-12.5713
-12.5634
-12.557
-12.5528
-12.5514
-12.5543
-12.5626
-12.5753
-12.5916
-12.6059
-12.6189
-12.6313
-12.6432
-12.6548
-12.6659
-12.6762
-12.6854
-12.6932
-12.6993
-12.7035
-12.7056
-12.7054
-12.7027
-12.6973
-12.6886
-12.6761
-12.6592
-12.6373
-12.6111
-12.5831
-12.5599
-12.8266
-12.7911
-12.7573
-12.7294
-12.7071
-12.6895
-12.6756
-12.6646
-12.6558
-12.6485
-12.6423
-12.6367
-12.6314
-12.6259
-12.6201
-12.6136
-12.6064
-12.5985
-12.5901
-12.5816
-12.5738
-12.5674
-12.5632
-12.5617
-12.5641
-12.5716
-12.5833
-12.5991
-12.6133
-12.6262
-12.6383
-12.6501
-12.6615
-12.6725
-12.6826
-12.6917
-12.6995
-12.7055
-12.7097
-12.7118
-12.7116
-12.7089
-12.7035
-12.6949
-12.6825
-12.6657
-12.6439
-12.6177
-12.5894
-12.5654
-12.8378
-12.8023
-12.7687
-12.7409
-12.7186
-12.7011
-12.6873
-12.6764
-12.6676
-12.6603
-12.6541
-12.6486
-12.6433
-12.6379
-12.6321
-12.6257
-12.6186
-12.6108
-12.6025
-12.5941
-12.5862
-12.5798
-12.5756
-12.5738
-12.5756
-12.5823
-12.593
-12.6084
-12.6222
-12.6349
-12.6469
-12.6585
-12.6698
-12.6805
-12.6905
-12.6995
-12.7071
-12.7131
-12.7171
-12.7192
-12.719
-12.7163
-12.7109
-12.7024
-12.6902
-12.6735
-12.6518
-12.6255
-12.597
-12.5721
-12.8503
-12.8147
-12.7815
-12.7538
-12.7318
-12.7144
-12.7007
-12.6898
-12.6811
-12.6739
-12.6677
-12.6622
-12.6569
-12.6516
-12.6459
-12.6396
-12.6326
-12.6249
-12.6166
-12.6083
-12.6005
-12.594
-12.5897
-12.5875
-12.5888
-12.5946
-12.6044
-12.6191
-12.6327
-12.6452
-12.657
-12.6683
-12.6794
-12.6899
-12.6997
-12.7085
-12.716
-12.7218
-12.7258
-12.7278
-12.7275
-12.7249
-12.7196
-12.7112
-12.6991
-12.6825
-12.661
-12.6346
-12.6057
-12.5798
-12.8641
-12.8282
-12.7954
-12.7681
-12.7463
-12.7291
-12.7155
-12.7047
-12.696
-12.6889
-12.6828
-12.6774
-12.6722
-12.6669
-12.6613
-12.655
-12.6481
-12.6405
-12.6324
-12.6241
-12.6163
-12.6098
-12.6051
-12.6026
-12.6034
-12.6084
-12.6173
-12.6313
-12.6446
-12.6568
-12.6683
-12.6794
-12.6902
-12.7005
-12.7102
-12.7188
-12.7261
-12.7318
-12.7357
-12.7375
-12.7373
-12.7346
-12.7293
-12.721
-12.709
-12.6927
-12.6712
-12.6448
-12.6155
-12.5887
-12.879
-12.8429
-12.8103
-12.7834
-12.7619
-12.7449
-12.7314
-12.7208
-12.7122
-12.7052
-12.6992
-12.6938
-12.6887
-12.6835
-12.6779
-12.6718
-12.665
-12.6575
-12.6494
-12.6412
-12.6334
-12.6268
-12.6218
-12.619
-12.6193
-12.6235
-12.6316
-12.6449
-12.6577
-12.6696
-12.6809
-12.6918
-12.7023
-12.7123
-12.7217
-12.7301
-12.7372
-12.7428
-12.7465
-12.7483
-12.748
-12.7454
-12.7401
-12.7319
-12.7201
-12.7039
-12.6825
-12.656
-12.6264
-12.5985
-12.8949
-12.8585
-12.8261
-12.7996
-12.7784
-12.7616
-12.7484
-12.7379
-12.7295
-12.7225
-12.7166
-12.7113
-12.7062
-12.7011
-12.6957
-12.6897
-12.683
-12.6755
-12.6676
-12.6594
-12.6516
-12.6449
-12.6397
-12.6366
-12.6364
-12.64
-12.6472
-12.6597
-12.6721
-12.6837
-12.6946
-12.7052
-12.7154
-12.7252
-12.7343
-12.7425
-12.7494
-12.7548
-12.7584
-12.7601
-12.7597
-12.7571
-12.7519
-12.7437
-12.7321
-12.716
-12.6947
-12.6682
-12.6382
-12.6094
-12.9117
-12.8749
-12.8429
-12.8167
-12.7958
-12.7793
-12.7663
-12.756
-12.7476
-12.7408
-12.7349
-12.7297
-12.7247
-12.7197
-12.7143
-12.7084
-12.7019
-12.6946
-12.6867
-12.6786
-12.6708
-12.664
-12.6586
-12.6552
-12.6546
-12.6575
-12.664
-12.6756
-12.6875
-12.6988
-12.7094
-12.7197
-12.7296
-12.7391
-12.7479
-12.7558
-12.7625
-12.7677
-12.7712
-12.7728
-12.7724
-12.7697
-12.7645
-12.7565
-12.745
-12.7291
-12.7079
-12.6814
-12.651
-12.6211
-12.9294
-12.8922
-12.8604
-12.8346
-12.814
-12.7978
-12.785
-12.7748
-12.7666
-12.7599
-12.7541
-12.749
-12.7441
-12.7391
-12.7339
-12.7281
-12.7216
-12.7144
-12.7067
-12.6987
-12.6909
-12.684
-12.6785
-12.6748
-12.6738
-12.6762
-12.6818
-12.6926
-12.704
-12.7148
-12.7251
-12.7351
-12.7447
-12.7539
-12.7624
-12.7701
-12.7765
-12.7815
-12.7848
-12.7863
-12.7858
-12.7831
-12.778
-12.7701
-12.7587
-12.743
-12.7219
-12.6954
-12.6647
-12.6337
-12.9477
-12.9102
-12.8786
-12.8531
-12.8329
-12.817
-12.8044
-12.7944
-12.7863
-12.7797
-12.774
-12.7689
-12.7641
-12.7593
-12.7541
-12.7484
-12.7421
-12.7351
-12.7274
-12.7195
-12.7118
-12.7048
-12.6991
-12.6953
-12.6938
-12.6957
-12.7007
-12.7105
-12.7214
-12.7318
-12.7418
-12.7514
-12.7606
-12.7695
-12.7778
-12.7851
-12.7913
-12.7961
-12.7993
-12.8006
-12.8
-12.7973
-12.7922
-12.7844
-12.7732
-12.7577
-12.7368
-12.7103
-12.6792
-12.6472
-12.9667
-12.9288
-12.8975
-12.8723
-12.8525
-12.8368
-12.8245
-12.8146
-12.8067
-12.8002
-12.7946
-12.7896
-12.7849
-12.7801
-12.7751
-12.7695
-12.7633
-12.7564
-12.7489
-12.7411
-12.7334
-12.7264
-12.7206
-12.7165
-12.7147
-12.7161
-12.7204
-12.7293
-12.7396
-12.7497
-12.7593
-12.7685
-12.7774
-12.7859
-12.7939
-12.8009
-12.8069
-12.8114
-12.8144
-12.8156
-12.8149
-12.8122
-12.8072
-12.7995
-12.7884
-12.7731
-12.7523
-12.7259
-12.6945
-12.6615
-12.9863
-12.948
-12.9169
-12.8921
-12.8726
-12.8573
-12.8451
-12.8355
-12.8277
-12.8213
-12.8158
-12.8109
-12.8063
-12.8016
-12.7966
-12.7912
-12.7851
-12.7783
-12.771
-12.7633
-12.7557
-12.7487
-12.7427
-12.7384
-12.7363
-12.7372
-12.7409
-12.7489
-12.7587
-12.7683
-12.7775
-12.7863
-12.7949
-12.8031
-12.8107
-12.8175
-12.8231
-12.8274
-12.8302
-12.8313
-12.8305
-12.8278
-12.8228
-12.8152
-12.8043
-12.7892
-12.7686
-12.7422
-12.7105
-12.6765
-13.0063
-12.9677
-12.9368
-12.9124
-12.8933
-12.8782
-12.8663
-12.8568
-12.8492
-12.8429
-12.8375
-12.8327
-12.8282
-12.8236
-12.8188
-12.8134
-12.8075
-12.8009
-12.7936
-12.7861
-12.7785
-12.7715
-12.7655
-12.761
-12.7586
-12.7591
-12.7621
-12.7693
-12.7784
-12.7876
-12.7964
-12.8049
-12.8131
-12.8209
-12.8281
-12.8346
-12.84
-12.8441
-12.8467
-12.8476
-12.8467
-12.844
-12.8391
-12.8316
-12.8208
-12.8059
-12.7855
-12.7592
-12.7273
-12.6922
-13.0268
-12.9878
-12.9572
-12.9332
-12.9144
-12.8997
-12.888
-12.8787
-12.8712
-12.865
-12.8597
-12.855
-12.8506
-12.8461
-12.8414
-12.8362
-12.8304
-12.8239
-12.8168
-12.8093
-12.8019
-12.7949
-12.7888
-12.7841
-12.7815
-12.7815
-12.784
-12.7902
-12.7988
-12.8075
-12.8159
-12.824
-12.8318
-12.8393
-12.8462
-12.8523
-12.8575
-12.8613
-12.8637
-12.8644
-12.8635
-12.8608
-12.8559
-12.8485
-12.838
-12.8232
-12.8031
-12.7769
-12.7446
-12.7085
-13.0477
-13.0083
-12.978
-12.9544
-12.9359
-12.9215
-12.91
-12.9009
-12.8936
-12.8875
-12.8824
-12.8778
-12.8734
-12.869
-12.8644
-12.8593
-12.8536
-12.8473
-12.8404
-12.8331
-12.8257
-12.8187
-12.8125
-12.8078
-12.8049
-12.8045
-12.8064
-12.8118
-12.8197
-12.828
-12.836
-12.8437
-12.8512
-12.8583
-12.8648
-12.8706
-12.8754
-12.879
-12.8812
-12.8818
-12.8809
-12.8781
-12.8733
-12.866
-12.8556
-12.8411
-12.8212
-12.7951
-12.7626
-12.7255
-13.0689
-13.0292
-12.9991
-12.9759
-12.9578
-12.9437
-12.9325
-12.9236
-12.9164
-12.9104
-12.9054
-12.9009
-12.8966
-12.8923
-12.8878
-12.8829
-12.8773
-12.8711
-12.8643
-12.8571
-12.8499
-12.8429
-12.8367
-12.8318
-12.8287
-12.8279
-12.8293
-12.834
-12.8412
-12.849
-12.8566
-12.864
-12.871
-12.8777
-12.8839
-12.8894
-12.8939
-12.8973
-12.8992
-12.8997
-12.8987
-12.8959
-12.8912
-12.884
-12.8738
-12.8595
-12.8398
-12.8139
-12.7811
-12.7431
-13.0903
-13.0503
-13.0205
-12.9977
-12.98
-12.9661
-12.9552
-12.9465
-12.9395
-12.9336
-12.9287
-12.9243
-12.9201
-12.916
-12.9116
-12.9067
-12.9013
-12.8953
-12.8886
-12.8816
-12.8744
-12.8675
-12.8612
-12.8563
-12.853
-12.8518
-12.8527
-12.8565
-12.8632
-12.8705
-12.8777
-12.8847
-12.8913
-12.8977
-12.9035
-12.9086
-12.9129
-12.9159
-12.9177
-12.9181
-12.917
-12.9142
-12.9096
-12.9025
-12.8924
-12.8783
-12.8589
-12.8331
-12.8002
-12.7612
-13.112
-13.0717
-13.0422
-13.0198
-13.0024
-12.9889
-12.9782
-12.9697
-12.9628
-12.9571
-12.9523
-12.948
-12.9439
-12.9399
-12.9356
-12.9308
-12.9256
-12.9197
-12.9132
-12.9063
-12.8992
-12.8923
-12.8861
-12.881
-12.8775
-12.8761
-12.8765
-12.8795
-12.8856
-12.8924
-12.8992
-12.9058
-12.9121
-12.918
-12.9235
-12.9283
-12.9322
-12.935
-12.9366
-12.9368
-12.9357
-12.933
-12.9283
-12.9214
-12.9114
-12.8976
-12.8785
-12.8529
-12.8198
-12.7798
-13.1338
-13.0933
-13.0641
-13.042
-13.0251
-13.0119
-13.0014
-12.9931
-12.9864
-12.9808
-12.9761
-12.9719
-12.9679
-12.964
-12.9598
-12.9552
-12.9501
-12.9443
-12.938
-12.9312
-12.9242
-12.9174
-12.9111
-12.906
-12.9024
-12.9006
-12.9005
-12.9029
-12.9083
-12.9147
-12.9211
-12.9273
-12.9332
-12.9387
-12.9438
-12.9483
-12.9519
-12.9545
-12.9559
-12.956
-12.9548
-12.9521
-12.9475
-12.9406
-12.9308
-12.9172
-12.8984
-12.873
-12.8398
-12.7989
-13.1558
-13.1151
-13.0861
-13.0645
-13.0479
-13.035
-13.0248
-13.0167
-13.0101
-13.0047
-13.0001
-12.996
-12.9921
-12.9883
-12.9842
-12.9797
-12.9747
-12.9691
-12.9629
-12.9563
-12.9495
-12.9427
-12.9364
-12.9313
-12.9275
-12.9254
-12.9249
-12.9266
-12.9314
-12.9373
-12.9433
-12.9491
-12.9546
-12.9598
-12.9645
-12.9687
-12.972
-12.9743
-12.9755
-12.9755
-12.9743
-12.9716
-12.967
-12.9603
-12.9506
-12.9373
-12.9188
-12.8936
-12.8602
-12.8185
-13.1778
-13.137
-13.1083
-13.0871
-13.0709
-13.0583
-13.0484
-13.0404
-13.034
-13.0288
-13.0243
-13.0203
-13.0165
-13.0127
-13.0087
-13.0044
-12.9995
-12.9941
-12.9881
-12.9816
-12.9748
-12.9682
-12.9619
-12.9567
-12.9528
-12.9505
-12.9495
-12.9505
-12.9548
-12.9602
-12.9658
-12.9712
-12.9763
-12.9812
-12.9855
-12.9893
-12.9924
-12.9944
-12.9954
-12.9954
-12.9941
-12.9914
-12.9869
-12.9802
-12.9708
-12.9576
-12.9394
-12.9145
-12.881
-12.8384
-13.1999
-13.1589
-13.1306
-13.1098
-13.0939
-13.0817
-13.072
-13.0643
-13.0581
-13.0529
-13.0485
-13.0446
-13.0409
-13.0373
-13.0334
-13.0292
-13.0244
-13.0191
-13.0133
-13.0069
-13.0003
-12.9937
-12.9875
-12.9822
-12.9782
-12.9757
-12.9743
-12.9747
-12.9784
-12.9834
-12.9886
-12.9936
-12.9984
-13.0028
-13.0068
-13.0103
-13.013
-13.0148
-13.0157
-13.0155
-13.0142
-13.0115
-13.0071
-13.0005
-12.9912
-12.9783
-12.9604
-12.9357
-12.9021
-12.8588
-13.2221
-13.181
-13.153
-13.1325
-13.1171
-13.1051
-13.0957
-13.0882
-13.0821
-13.0771
-13.0728
-13.069
-13.0655
-13.0619
-13.0581
-13.054
-13.0494
-13.0443
-13.0386
-13.0324
-13.0259
-13.0194
-13.0132
-13.0079
-13.0037
-13.001
-12.9993
-12.9991
-13.0022
-13.0067
-13.0116
-13.0162
-13.0206
-13.0247
-13.0283
-13.0315
-13.0339
-13.0355
-13.0362
-13.0359
-13.0346
-13.0319
-13.0275
-13.021
-13.0119
-12.9992
-12.9817
-12.9572
-12.9236
-12.8795
-13.2442
-13.203
-13.1753
-13.1554
-13.1403
-13.1286
-13.1195
-13.1122
-13.1063
-13.1014
-13.0972
-13.0935
-13.09
-13.0866
-13.0829
-13.0789
-13.0744
-13.0694
-13.0639
-13.0578
-13.0515
-13.0451
-13.0389
-13.0336
-13.0294
-13.0264
-13.0244
-13.0236
-13.0261
-13.0303
-13.0347
-13.039
-13.043
-13.0467
-13.0501
-13.0529
-13.055
-13.0564
-13.057
-13.0566
-13.0552
-13.0525
-13.0482
-13.0418
-13.0328
-13.0203
-13.0032
-12.979
-12.9453
-12.9005
-13.2663
-13.2251
-13.1978
-13.1782
-13.1635
-13.1522
-13.1433
-13.1361
-13.1304
-13.1256
-13.1216
-13.118
-13.1146
-13.1112
-13.1077
-13.1038
-13.0995
-13.0946
-13.0892
-13.0833
-13.0771
-13.0708
-13.0647
-13.0594
-13.055
-13.0519
-13.0495
-13.0482
-13.0502
-13.054
-13.0581
-13.062
-13.0656
-13.069
-13.072
-13.0745
-13.0764
-13.0775
-13.0779
-13.0775
-13.076
-13.0734
-13.0691
-13.0628
-13.0539
-13.0417
-13.0249
-13.001
-12.9674
-12.9218
-13.2883
-13.2471
-13.2202
-13.201
-13.1867
-13.1757
-13.167
-13.1601
-13.1545
-13.1499
-13.1459
-13.1424
-13.1392
-13.1359
-13.1324
-13.1287
-13.1245
-13.1198
-13.1145
-13.1088
-13.1027
-13.0965
-13.0904
-13.0851
-13.0807
-13.0774
-13.0747
-13.073
-13.0745
-13.0778
-13.0815
-13.0851
-13.0884
-13.0914
-13.094
-13.0962
-13.0979
-13.0988
-13.0991
-13.0986
-13.0971
-13.0944
-13.0902
-13.084
-13.0753
-13.0633
-13.0468
-13.0232
-12.9896
-12.9434
-13.3103
-13.2691
-13.2425
-13.2238
-13.2099
-13.1991
-13.1907
-13.184
-13.1786
-13.1741
-13.1703
-13.1669
-13.1637
-13.1605
-13.1572
-13.1535
-13.1495
-13.1449
-13.1398
-13.1342
-13.1282
-13.1221
-13.1161
-13.1108
-13.1064
-13.1029
-13.0999
-13.0977
-13.0987
-13.1017
-13.105
-13.1083
-13.1113
-13.1139
-13.1162
-13.1182
-13.1195
-13.1203
-13.1204
-13.1198
-13.1183
-13.1156
-13.1115
-13.1053
-13.0968
-13.085
-13.0689
-13.0456
-13.0121
-12.9652
-13.3321
-13.291
-13.2648
-13.2465
-13.233
-13.2226
-13.2144
-13.2079
-13.2026
-13.1983
-13.1945
-13.1912
-13.1881
-13.1851
-13.1818
-13.1783
-13.1744
-13.1699
-13.165
-13.1595
-13.1537
-13.1477
-13.1418
-13.1365
-13.132
-13.1284
-13.1252
-13.1225
-13.1231
-13.1256
-13.1287
-13.1316
-13.1342
-13.1366
-13.1386
-13.1402
-13.1413
-13.1419
-13.1419
-13.1412
-13.1397
-13.137
-13.1329
-13.1269
-13.1184
-13.1069
-13.0911
-13.0682
-13.0347
-12.9873
-13.3539
-13.3129
-13.2871
-13.2692
-13.256
-13.2459
-13.238
-13.2317
-13.2266
-13.2223
-13.2187
-13.2155
-13.2125
-13.2095
-13.2064
-13.203
-13.1992
-13.1949
-13.1901
-13.1848
-13.1791
-13.1732
-13.1673
-13.1621
-13.1576
-13.1538
-13.1503
-13.1473
-13.1474
-13.1496
-13.1523
-13.1549
-13.1573
-13.1593
-13.161
-13.1623
-13.1632
-13.1636
-13.1635
-13.1627
-13.1612
-13.1585
-13.1544
-13.1485
-13.1402
-13.1289
-13.1134
-13.0908
-13.0575
-13.0095
-13.3755
-13.3346
-13.3092
-13.2917
-13.2789
-13.2691
-13.2615
-13.2554
-13.2504
-13.2463
-13.2428
-13.2397
-13.2368
-13.2339
-13.2308
-13.2275
-13.2238
-13.2197
-13.215
-13.2099
-13.2044
-13.1986
-13.1928
-13.1876
-13.183
-13.1792
-13.1755
-13.1721
-13.1718
-13.1736
-13.176
-13.1783
-13.1803
-13.182
-13.1834
-13.1845
-13.1852
-13.1854
-13.1852
-13.1844
-13.1828
-13.1801
-13.1761
-13.1703
-13.1621
-13.151
-13.1358
-13.1136
-13.0805
-13.032
-13.397
-13.3562
-13.3312
-13.3142
-13.3018
-13.2923
-13.2849
-13.2789
-13.2741
-13.2701
-13.2667
-13.2637
-13.2609
-13.2581
-13.2552
-13.252
-13.2484
-13.2444
-13.2399
-13.2349
-13.2295
-13.2238
-13.2181
-13.2129
-13.2084
-13.2044
-13.2005
-13.1968
-13.1961
-13.1975
-13.1997
-13.2017
-13.2034
-13.2048
-13.206
-13.2068
-13.2072
-13.2073
-13.207
-13.2061
-13.2045
-13.2018
-13.1978
-13.1921
-13.1841
-13.1732
-13.1583
-13.1365
-13.1035
-13.0546
-13.4183
-13.3777
-13.3531
-13.3365
-13.3244
-13.3153
-13.3081
-13.3024
-13.2977
-13.2938
-13.2906
-13.2876
-13.2849
-13.2822
-13.2794
-13.2763
-13.2728
-13.2689
-13.2646
-13.2597
-13.2545
-13.2489
-13.2433
-13.2381
-13.2336
-13.2296
-13.2254
-13.2214
-13.2203
-13.2215
-13.2233
-13.2251
-13.2265
-13.2277
-13.2285
-13.2291
-13.2293
-13.2293
-13.2288
-13.2279
-13.2262
-13.2236
-13.2196
-13.214
-13.2062
-13.1955
-13.1809
-13.1595
-13.1267
-13.0773
-13.4394
-13.3991
-13.3749
-13.3587
-13.347
-13.3381
-13.3312
-13.3256
-13.3211
-13.3174
-13.3142
-13.3114
-13.3087
-13.3061
-13.3034
-13.3004
-13.2971
-13.2933
-13.2891
-13.2844
-13.2793
-13.2738
-13.2683
-13.2632
-13.2587
-13.2545
-13.2502
-13.2459
-13.2445
-13.2453
-13.2469
-13.2484
-13.2496
-13.2505
-13.2511
-13.2514
-13.2515
-13.2512
-13.2507
-13.2497
-13.248
-13.2454
-13.2415
-13.2359
-13.2282
-13.2178
-13.2035
-13.1825
-13.1499
-13.1002
-13.4603
-13.4202
-13.3965
-13.3808
-13.3694
-13.3608
-13.3541
-13.3487
-13.3444
-13.3408
-13.3377
-13.335
-13.3324
-13.3299
-13.3272
-13.3243
-13.3211
-13.3175
-13.3134
-13.3089
-13.3039
-13.2986
-13.2931
-13.2881
-13.2836
-13.2794
-13.2749
-13.2704
-13.2686
-13.2691
-13.2705
-13.2717
-13.2727
-13.2733
-13.2736
-13.2737
-13.2736
-13.2732
-13.2726
-13.2716
-13.2699
-13.2672
-13.2634
-13.2579
-13.2504
-13.2401
-13.2262
-13.2055
-13.1732
-13.1231
-13.481
-13.4412
-13.4179
-13.4026
-13.3916
-13.3833
-13.3768
-13.3717
-13.3675
-13.364
-13.361
-13.3584
-13.3559
-13.3534
-13.3509
-13.3481
-13.345
-13.3415
-13.3375
-13.3331
-13.3283
-13.3231
-13.3178
-13.3128
-13.3083
-13.304
-13.2994
-13.2946
-13.2926
-13.2929
-13.2939
-13.295
-13.2957
-13.2961
-13.2962
-13.296
-13.2957
-13.2952
-13.2945
-13.2934
-13.2917
-13.2891
-13.2853
-13.2799
-13.2725
-13.2625
-13.2488
-13.2285
-13.1965
-13.1462
-13.5015
-13.4621
-13.4392
-13.4243
-13.4137
-13.4057
-13.3994
-13.3944
-13.3904
-13.387
-13.3841
-13.3816
-13.3792
-13.3768
-13.3743
-13.3717
-13.3687
-13.3653
-13.3615
-13.3572
-13.3525
-13.3474
-13.3422
-13.3373
-13.3328
-13.3285
-13.3238
-13.3188
-13.3165
-13.3165
-13.3173
-13.3181
-13.3186
-13.3188
-13.3187
-13.3183
-13.3179
-13.3172
-13.3164
-13.3153
-13.3135
-13.3109
-13.3072
-13.3019
-13.2947
-13.2848
-13.2714
-13.2516
-13.2199
-13.1693
-13.5218
-13.4827
-13.4603
-13.4458
-13.4355
-13.4278
-13.4218
-13.417
-13.413
-13.4098
-13.407
-13.4045
-13.4022
-13.4
-13.3976
-13.395
-13.3921
-13.3889
-13.3852
-13.3811
-13.3765
-13.3716
-13.3664
-13.3616
-13.3571
-13.3528
-13.348
-13.3428
-13.3402
-13.3399
-13.3406
-13.3412
-13.3415
-13.3414
-13.3411
-13.3406
-13.3399
-13.3392
-13.3383
-13.3371
-13.3353
-13.3328
-13.3291
-13.3239
-13.3168
-13.3071
-13.2941
-13.2746
-13.2432
-13.1924
-13.5419
-13.5031
-13.4812
-13.4671
-13.4572
-13.4497
-13.4439
-13.4393
-13.4355
-13.4324
-13.4297
-13.4273
-13.4251
-13.4229
-13.4206
-13.4181
-13.4153
-13.4122
-13.4087
-13.4047
-13.4003
-13.3954
-13.3904
-13.3857
-13.3812
-13.3769
-13.372
-13.3666
-13.3638
-13.3633
-13.3637
-13.3642
-13.3643
-13.364
-13.3635
-13.3628
-13.362
-13.3611
-13.3602
-13.3589
-13.3571
-13.3546
-13.3509
-13.3458
-13.3389
-13.3294
-13.3166
-13.2976
-13.2666
-13.2156
-13.5617
-13.5233
-13.5019
-13.4883
-13.4786
-13.4714
-13.4659
-13.4614
-13.4578
-13.4547
-13.4522
-13.4499
-13.4477
-13.4456
-13.4434
-13.441
-13.4383
-13.4353
-13.4319
-13.428
-13.4238
-13.4191
-13.4142
-13.4095
-13.4051
-13.4007
-13.3957
-13.3902
-13.3872
-13.3865
-13.3867
-13.387
-13.3869
-13.3865
-13.3857
-13.3849
-13.3839
-13.383
-13.3819
-13.3806
-13.3788
-13.3763
-13.3727
-13.3677
-13.3609
-13.3517
-13.3392
-13.3205
-13.2899
-13.2388
-13.5812
-13.5433
-13.5224
-13.5091
-13.4999
-13.4929
-13.4876
-13.4833
-13.4798
-13.4769
-13.4744
-13.4722
-13.4701
-13.4681
-13.4659
-13.4636
-13.4611
-13.4582
-13.4549
-13.4512
-13.447
-13.4425
-13.4377
-13.4331
-13.4287
-13.4244
-13.4193
-13.4137
-13.4104
-13.4095
-13.4096
-13.4097
-13.4094
-13.4088
-13.4079
-13.4069
-13.4058
-13.4048
-13.4037
-13.4023
-13.4005
-13.398
-13.3944
-13.3895
-13.3829
-13.3739
-13.3616
-13.3434
-13.3132
-13.2621
-13.6006
-13.5631
-13.5426
-13.5298
-13.5209
-13.5142
-13.509
-13.5049
-13.5016
-13.4988
-13.4964
-13.4942
-13.4922
-13.4903
-13.4882
-13.486
-13.4835
-13.4808
-13.4776
-13.474
-13.47
-13.4656
-13.4609
-13.4564
-13.4521
-13.4477
-13.4426
-13.4369
-13.4335
-13.4324
-13.4323
-13.4322
-13.4318
-13.4311
-13.43
-13.4288
-13.4276
-13.4265
-13.4253
-13.4239
-13.4221
-13.4196
-13.4161
-13.4113
-13.4048
-13.396
-13.384
-13.3662
-13.3364
-13.2853
-13.6196
-13.5826
-13.5627
-13.5503
-13.5417
-13.5352
-13.5303
-13.5263
-13.5231
-13.5204
-13.5181
-13.516
-13.5141
-13.5122
-13.5103
-13.5082
-13.5058
-13.5031
-13.5001
-13.4966
-13.4927
-13.4884
-13.4839
-13.4794
-13.4752
-13.4709
-13.4657
-13.4599
-13.4563
-13.455
-13.4548
-13.4546
-13.4541
-13.4532
-13.452
-13.4507
-13.4494
-13.4481
-13.4469
-13.4454
-13.4436
-13.4411
-13.4376
-13.433
-13.4266
-13.418
-13.4063
-13.3889
-13.3595
-13.3085
-13.6384
-13.6019
-13.5825
-13.5705
-13.5622
-13.556
-13.5513
-13.5475
-13.5444
-13.5418
-13.5396
-13.5376
-13.5358
-13.5339
-13.5321
-13.53
-13.5277
-13.5252
-13.5222
-13.5189
-13.5152
-13.511
-13.5066
-13.5022
-13.4981
-13.4938
-13.4886
-13.4827
-13.4789
-13.4775
-13.4771
-13.4768
-13.4761
-13.4751
-13.4738
-13.4724
-13.471
-13.4696
-13.4683
-13.4668
-13.465
-13.4625
-13.4591
-13.4545
-13.4483
-13.4399
-13.4285
-13.4115
-13.3826
-13.3316
-13.657
-13.621
-13.6021
-13.5905
-13.5825
-13.5766
-13.572
-13.5684
-13.5654
-13.5629
-13.5608
-13.5589
-13.5571
-13.5554
-13.5536
-13.5516
-13.5494
-13.547
-13.5442
-13.541
-13.5374
-13.5333
-13.529
-13.5247
-13.5207
-13.5164
-13.5112
-13.5052
-13.5014
-13.4998
-13.4992
-13.4988
-13.4981
-13.4969
-13.4955
-13.4939
-13.4924
-13.491
-13.4896
-13.4881
-13.4862
-13.4838
-13.4804
-13.476
-13.4699
-13.4618
-13.4506
-13.434
-13.4056
-13.3548
-13.6752
-13.6398
-13.6214
-13.6102
-13.6025
-13.5969
-13.5925
-13.589
-13.5861
-13.5838
-13.5817
-13.5799
-13.5782
-13.5765
-13.5748
-13.5729
-13.5708
-13.5685
-13.5658
-13.5627
-13.5592
-13.5553
-13.5511
-13.547
-13.543
-13.5387
-13.5335
-13.5275
-13.5235
-13.5218
-13.5212
-13.5206
-13.5198
-13.5185
-13.517
-13.5154
-13.5138
-13.5123
-13.5108
-13.5093
-13.5074
-13.5049
-13.5017
-13.4973
-13.4914
-13.4835
-13.4726
-13.4564
-13.4285
-13.3778
-13.6932
-13.6584
-13.6405
-13.6297
-13.6223
-13.6169
-13.6127
-13.6094
-13.6066
-13.6043
-13.6024
-13.6007
-13.599
-13.5974
-13.5958
-13.594
-13.592
-13.5897
-13.5871
-13.5842
-13.5808
-13.577
-13.573
-13.5689
-13.565
-13.5608
-13.5556
-13.5496
-13.5455
-13.5437
-13.5429
-13.5423
-13.5413
-13.54
-13.5384
-13.5367
-13.535
-13.5334
-13.5319
-13.5303
-13.5284
-13.526
-13.5228
-13.5185
-13.5128
-13.505
-13.4944
-13.4787
-13.4512
-13.4008
-13.7109
-13.6767
-13.6593
-13.6489
-13.6418
-13.6367
-13.6326
-13.6295
-13.6268
-13.6247
-13.6228
-13.6211
-13.6196
-13.618
-13.6164
-13.6147
-13.6128
-13.6106
-13.6082
-13.6053
-13.6021
-13.5985
-13.5945
-13.5906
-13.5867
-13.5826
-13.5774
-13.5714
-13.5672
-13.5653
-13.5644
-13.5637
-13.5627
-13.5613
-13.5596
-13.5578
-13.556
-13.5544
-13.5529
-13.5512
-13.5493
-13.5469
-13.5437
-13.5396
-13.534
-13.5265
-13.5161
-13.5008
-13.4739
-13.4238
-13.7283
-13.6948
-13.6779
-13.6679
-13.6611
-13.6562
-13.6523
-13.6493
-13.6468
-13.6447
-13.6429
-13.6413
-13.6398
-13.6383
-13.6368
-13.6352
-13.6333
-13.6313
-13.6289
-13.6262
-13.6231
-13.6196
-13.6158
-13.6119
-13.6081
-13.6041
-13.5989
-13.5929
-13.5887
-13.5866
-13.5857
-13.5849
-13.5838
-13.5823
-13.5806
-13.5787
-13.5769
-13.5753
-13.5737
-13.572
-13.5701
-13.5677
-13.5646
-13.5605
-13.5551
-13.5478
-13.5377
-13.5228
-13.4964
-13.4466
-13.7454
-13.7126
-13.6962
-13.6866
-13.6801
-13.6754
-13.6717
-13.6688
-13.6664
-13.6644
-13.6627
-13.6612
-13.6598
-13.6584
-13.6569
-13.6553
-13.6536
-13.6516
-13.6494
-13.6468
-13.6438
-13.6404
-13.6367
-13.633
-13.6293
-13.6253
-13.6202
-13.6142
-13.6099
-13.6078
-13.6067
-13.6059
-13.6047
-13.6032
-13.6014
-13.5995
-13.5977
-13.5959
-13.5943
-13.5926
-13.5907
-13.5883
-13.5852
-13.5812
-13.576
-13.5689
-13.5591
-13.5446
-13.5187
-13.4694
-13.7623
-13.7301
-13.7143
-13.705
-13.6989
-13.6943
-13.6909
-13.6881
-13.6858
-13.6839
-13.6823
-13.6808
-13.6795
-13.6781
-13.6767
-13.6752
-13.6736
-13.6717
-13.6695
-13.667
-13.6642
-13.6609
-13.6573
-13.6537
-13.6501
-13.6462
-13.6411
-13.6352
-13.6309
-13.6287
-13.6276
-13.6267
-13.6255
-13.6239
-13.622
-13.6201
-13.6182
-13.6164
-13.6148
-13.613
-13.6111
-13.6087
-13.6057
-13.6019
-13.5967
-13.5899
-13.5804
-13.5662
-13.5409
-13.492
-13.7788
-13.7474
-13.7321
-13.7232
-13.7173
-13.713
-13.7097
-13.7071
-13.7049
-13.7031
-13.7015
-13.7001
-13.6988
-13.6976
-13.6962
-13.6948
-13.6932
-13.6914
-13.6894
-13.687
-13.6843
-13.6811
-13.6777
-13.6742
-13.6707
-13.6668
-13.6618
-13.6559
-13.6516
-13.6493
-13.6482
-13.6472
-13.6459
-13.6444
-13.6425
-13.6405
-13.6386
-13.6368
-13.6351
-13.6333
-13.6314
-13.629
-13.6261
-13.6223
-13.6173
-13.6107
-13.6015
-13.5877
-13.563
-13.5146
-13.7951
-13.7644
-13.7497
-13.7411
-13.7355
-13.7314
-13.7283
-13.7258
-13.7237
-13.722
-13.7205
-13.7192
-13.7179
-13.7167
-13.7154
-13.7141
-13.7126
-13.7108
-13.7089
-13.7066
-13.704
-13.701
-13.6977
-13.6943
-13.6909
-13.6871
-13.6822
-13.6764
-13.672
-13.6697
-13.6685
-13.6675
-13.6662
-13.6646
-13.6627
-13.6607
-13.6588
-13.6569
-13.6552
-13.6534
-13.6515
-13.6492
-13.6463
-13.6426
-13.6378
-13.6313
-13.6225
-13.609
-13.5848
-13.537
-13.8111
-13.7812
-13.7669
-13.7588
-13.7534
-13.7495
-13.7465
-13.7442
-13.7422
-13.7406
-13.7392
-13.7379
-13.7367
-13.7356
-13.7344
-13.7331
-13.7316
-13.73
-13.7281
-13.726
-13.7235
-13.7206
-13.7174
-13.7141
-13.7108
-13.7071
-13.7023
-13.6966
-13.6922
-13.6899
-13.6886
-13.6875
-13.6862
-13.6846
-13.6827
-13.6807
-13.6788
-13.6769
-13.6751
-13.6734
-13.6714
-13.6691
-13.6663
-13.6627
-13.658
-13.6518
-13.6432
-13.6302
-13.6066
-13.5594
-13.8267
-13.7977
-13.784
-13.7762
-13.7711
-13.7674
-13.7645
-13.7623
-13.7604
-13.7589
-13.7575
-13.7563
-13.7552
-13.7541
-13.753
-13.7517
-13.7504
-13.7488
-13.747
-13.745
-13.7426
-13.7399
-13.7368
-13.7336
-13.7304
-13.7268
-13.7221
-13.7165
-13.7121
-13.7097
-13.7084
-13.7074
-13.706
-13.7044
-13.7025
-13.7005
-13.6986
-13.6967
-13.6949
-13.6931
-13.6912
-13.6889
-13.6861
-13.6826
-13.6781
-13.6721
-13.6638
-13.6512
-13.6281
-13.5816
-13.8421
-13.8139
-13.8007
-13.7933
-13.7884
-13.7849
-13.7823
-13.7801
-13.7784
-13.7769
-13.7756
-13.7745
-13.7734
-13.7724
-13.7713
-13.7701
-13.7688
-13.7673
-13.7657
-13.7637
-13.7615
-13.7588
-13.7559
-13.7528
-13.7497
-13.7462
-13.7416
-13.7361
-13.7318
-13.7294
-13.728
-13.7269
-13.7256
-13.724
-13.7221
-13.7201
-13.7181
-13.7163
-13.7145
-13.7127
-13.7108
-13.7085
-13.7058
-13.7024
-13.698
-13.6922
-13.6842
-13.672
-13.6495
-13.6037
-13.8573
-13.8299
-13.8172
-13.8101
-13.8055
-13.8022
-13.7997
-13.7977
-13.796
-13.7946
-13.7934
-13.7923
-13.7913
-13.7903
-13.7893
-13.7882
-13.787
-13.7856
-13.784
-13.7821
-13.78
-13.7775
-13.7746
-13.7717
-13.7687
-13.7653
-13.7609
-13.7554
-13.7512
-13.7488
-13.7474
-13.7463
-13.7449
-13.7433
-13.7415
-13.7395
-13.7375
-13.7357
-13.7339
-13.7321
-13.7302
-13.7279
-13.7253
-13.7219
-13.7177
-13.7121
-13.7045
-13.6926
-13.6706
-13.6256
-13.8721
-13.8456
-13.8335
-13.8267
-13.8224
-13.8192
-13.8168
-13.8149
-13.8134
-13.812
-13.8109
-13.8099
-13.8089
-13.808
-13.807
-13.806
-13.8048
-13.8035
-13.802
-13.8002
-13.7982
-13.7958
-13.7931
-13.7903
-13.7874
-13.7841
-13.7798
-13.7745
-13.7703
-13.7679
-13.7665
-13.7654
-13.764
-13.7624
-13.7606
-13.7587
-13.7567
-13.7549
-13.7531
-13.7513
-13.7494
-13.7472
-13.7446
-13.7413
-13.7373
-13.7319
-13.7245
-13.7131
-13.6917
-13.6475
-13.8866
-13.861
-13.8494
-13.8431
-13.8389
-13.836
-13.8337
-13.8319
-13.8304
-13.8292
-13.8281
-13.8272
-13.8263
-13.8254
-13.8244
-13.8235
-13.8224
-13.8211
-13.8197
-13.818
-13.8161
-13.8138
-13.8113
-13.8085
-13.8058
-13.8026
-13.7984
-13.7933
-13.7892
-13.7868
-13.7853
-13.7842
-13.7829
-13.7813
-13.7795
-13.7776
-13.7757
-13.7739
-13.7721
-13.7703
-13.7684
-13.7663
-13.7637
-13.7606
-13.7566
-13.7515
-13.7444
-13.7334
-13.7125
-13.6692
-13.9009
-13.8762
-13.8652
-13.8591
-13.8553
-13.8525
-13.8503
-13.8487
-13.8473
-13.8461
-13.8451
-13.8442
-13.8433
-13.8425
-13.8416
-13.8407
-13.8396
-13.8385
-13.8371
-13.8356
-13.8337
-13.8316
-13.8291
-13.8265
-13.8239
-13.8209
-13.8168
-13.8118
-13.8078
-13.8054
-13.804
-13.8028
-13.8016
-13.8
-13.7983
-13.7964
-13.7945
-13.7927
-13.791
-13.7892
-13.7873
-13.7852
-13.7827
-13.7797
-13.7758
-13.7709
-13.7641
-13.7535
-13.7332
-13.6908
-13.915
-13.8912
-13.8807
-13.875
-13.8713
-13.8687
-13.8667
-13.8651
-13.8638
-13.8627
-13.8618
-13.8609
-13.8601
-13.8593
-13.8585
-13.8576
-13.8566
-13.8555
-13.8543
-13.8528
-13.8511
-13.849
-13.8467
-13.8442
-13.8417
-13.8388
-13.8349
-13.8301
-13.8262
-13.8238
-13.8224
-13.8213
-13.82
-13.8185
-13.8168
-13.815
-13.8131
-13.8114
-13.8096
-13.8079
-13.806
-13.804
-13.8015
-13.7986
-13.7949
-13.7902
-13.7837
-13.7735
-13.7537
-13.7123
-13.9288
-13.906
-13.896
-13.8906
-13.8872
-13.8847
-13.8829
-13.8814
-13.8801
-13.8791
-13.8782
-13.8774
-13.8766
-13.8759
-13.8751
-13.8743
-13.8734
-13.8724
-13.8712
-13.8698
-13.8682
-13.8662
-13.864
-13.8617
-13.8593
-13.8565
-13.8528
-13.8482
-13.8443
-13.842
-13.8406
-13.8395
-13.8382
-13.8368
-13.8351
-13.8333
-13.8316
-13.8299
-13.8282
-13.8265
-13.8246
-13.8226
-13.8202
-13.8174
-13.8139
-13.8093
-13.8032
-13.7934
-13.7741
-13.7337
-13.9424
-13.9206
-13.9111
-13.906
-13.9028
-13.9005
-13.8988
-13.8974
-13.8962
-13.8953
-13.8944
-13.8937
-13.893
-13.8923
-13.8916
-13.8908
-13.8899
-13.8889
-13.8878
-13.8865
-13.885
-13.8832
-13.8811
-13.8789
-13.8766
-13.874
-13.8704
-13.866
-13.8623
-13.86
-13.8586
-13.8575
-13.8563
-13.8549
-13.8533
-13.8516
-13.8499
-13.8482
-13.8466
-13.8449
-13.8431
-13.8411
-13.8388
-13.8361
-13.8327
-13.8284
-13.8225
-13.8132
-13.7944
-13.755
-13.9559
-13.935
-13.9261
-13.9213
-13.9183
-13.9162
-13.9145
-13.9132
-13.9122
-13.9113
-13.9105
-13.9098
-13.9091
-13.9085
-13.9078
-13.9071
-13.9063
-13.9053
-13.9043
-13.9031
-13.9017