/*--------------------------------*- C++ -*----------------------------------*\
| =========                 |                                                 |
| \\      /  F ield         | OpenFOAM: The Open Source CFD Toolbox           |
|  \\    /   O peration     | Version:  v1912                                 |
|   \\  /    A nd           | Website:  www.openfoam.com                      |
|    \\/     M anipulation  |                                                 |
\*---------------------------------------------------------------------------*/
FoamFile
{
    version     2.0;
    format      ascii;
    class       surfaceScalarField;
    location    "31536000";
    object      U;
}
// * * * * * * * * * * * * * * * * * * * * * * * * * * * * * * * * * * * * * //

dimensions      [0 1 -1 0 0 0 0];
oriented        oriented;


internalField   nonuniform List<scalar> 
8365
(
-5.12002e-19
-3.57709e-17
-1.68351e-19
-2.57191e-18
-4.03784e-20
-1.02688e-18
-1.34836e-20
-3.13257e-19
-3.67026e-21
-2.44067e-19
1.53098e-21
-1.23047e-19
2.67311e-21
-9.72959e-20
2.9392e-21
-9.41169e-20
3.10486e-21
-9.18647e-20
3.20497e-21
-9.02458e-20
3.28005e-21
-8.92146e-20
3.35855e-21
-8.8546e-20
3.33733e-21
-8.801e-20
3.34933e-21
-8.78062e-20
3.36431e-21
-8.77529e-20
3.30761e-21
-8.78399e-20
3.17962e-21
-8.83661e-20
2.92185e-21
-8.96499e-20
2.43042e-21
-9.22754e-20
-1.13908e-21
-9.86354e-20
-1.55782e-20
-1.47246e-19
-5.4217e-20
-3.27902e-19
-1.59693e-19
-7.87071e-19
-8.48226e-19
-1.95445e-18
-1.06134e-17
-1.01015e-17
-1.45043e-14
-1.18403e-16
-4.13654e-16
8.73936e-16
-7.26477e-16
-2.93892e-16
-8.41955e-16
-4.32506e-16
-1.01363e-15
-5.24743e-16
-1.25801e-15
-6.38653e-16
-1.57419e-15
-7.75938e-16
-1.94829e-15
-9.24874e-16
-2.36663e-15
-1.10297e-15
-2.80635e-15
-1.29951e-15
-3.25335e-15
-1.56246e-15
-3.67065e-15
-1.85271e-15
-4.03984e-15
-2.19115e-15
-4.34566e-15
-2.66514e-15
-4.54923e-15
-3.15149e-15
-4.64487e-15
-3.73027e-15
-4.64859e-15
-4.42495e-15
-4.54421e-15
-5.38935e-15
-4.36213e-15
-6.64284e-15
-4.02749e-15
-7.93515e-15
-3.55996e-15
-9.96082e-15
-3.10679e-15
-1.21231e-14
-2.57484e-15
-1.50389e-14
-6.29251e-15
-1.70349e-14
-5.38415e-14
-3.77362e-18
-2.09285e-16
-9.82735e-19
-1.45683e-17
-3.23762e-19
-5.75147e-18
-1.52861e-19
-1.63394e-18
-8.63001e-20
-1.34493e-18
-4.70645e-20
-6.05535e-19
-3.93727e-20
-4.39004e-19
-3.80893e-20
-4.25451e-19
-3.72709e-20
-4.17006e-19
-3.67283e-20
-4.10786e-19
-3.6363e-20
-4.06701e-19
-3.60762e-20
-4.04067e-19
-3.59903e-20
-4.02189e-19
-3.59247e-20
-4.01168e-19
-3.59197e-20
-4.00761e-19
-3.61292e-20
-4.01092e-19
-3.66518e-20
-4.02973e-19
-3.77278e-20
-4.07581e-19
-4.02302e-20
-4.16947e-19
-6.25746e-20
-4.43072e-19
-1.50741e-19
-7.1697e-19
-3.75795e-19
-1.68399e-18
-8.88953e-19
-3.99497e-18
-3.82174e-18
-9.0032e-18
-3.26111e-17
-4.21014e-17
-9.22806e-15
-2.56145e-16
-6.9291e-16
4.76802e-16
-7.86362e-16
-5.57455e-16
-9.17236e-16
-8.18309e-16
-1.10463e-15
-1.02774e-15
-1.36444e-15
-1.22668e-15
-1.69765e-15
-1.4989e-15
-2.09307e-15
-1.81544e-15
-2.53635e-15
-2.20456e-15
-3.01172e-15
-2.69286e-15
-3.49359e-15
-3.24665e-15
-3.95698e-15
-3.87174e-15
-4.39589e-15
-4.66099e-15
-4.77187e-15
-5.59027e-15
-5.07291e-15
-6.67765e-15
-5.29009e-15
-7.94855e-15
-5.45855e-15
-9.43229e-15
-5.55762e-15
-1.12033e-14
-5.59519e-15
-1.33841e-14
-5.60516e-15
-1.59858e-14
-5.47758e-15
-1.90247e-14
-5.47752e-15
-2.27884e-14
-5.21811e-15
-2.67716e-14
-8.13578e-15
-3.15216e-14
-7.00734e-14
6.85282e-20
-7.16276e-16
-3.47387e-18
-5.77046e-17
-1.36104e-18
-2.54248e-17
-7.86814e-19
-7.7746e-18
-4.40919e-19
-6.49194e-18
-2.52688e-19
-2.81461e-18
-2.18545e-19
-1.97045e-18
-2.14108e-19
-1.9194e-18
-2.11425e-19
-1.89269e-18
-2.09589e-19
-1.8725e-18
-2.08358e-19
-1.85882e-18
-2.0747e-19
-1.84986e-18
-2.0701e-19
-1.84365e-18
-2.06716e-19
-1.83958e-18
-2.06693e-19
-1.83739e-18
-2.07284e-19
-1.8377e-18
-2.08882e-19
-1.84264e-18
-2.12231e-19
-1.85594e-18
-2.21016e-19
-1.88372e-18
-3.2942e-19
-1.97062e-18
-7.46605e-19
-3.21601e-18
-1.70315e-18
-7.63421e-18
-3.71884e-18
-1.66947e-17
-1.42539e-17
-3.84461e-17
-8.48799e-17
-1.81641e-16
-6.00765e-15
-9.85111e-16
-1.14581e-15
5.58394e-17
-8.69291e-16
-7.66204e-16
-1.00715e-15
-1.1194e-15
-1.20789e-15
-1.39036e-15
-1.49147e-15
-1.70973e-15
-1.8477e-15
-2.07107e-15
-2.27574e-15
-2.5189e-15
-2.76018e-15
-3.09779e-15
-3.27717e-15
-3.74345e-15
-3.81197e-15
-4.55826e-15
-4.3504e-15
-5.58585e-15
-4.86387e-15
-6.75146e-15
-5.32629e-15
-8.04264e-15
-5.73829e-15
-9.62882e-15
-6.09171e-15
-1.14737e-14
-6.41887e-15
-1.375e-14
-6.69286e-15
-1.62585e-14
-6.94788e-15
-1.91604e-14
-7.20167e-15
-2.29275e-14
-7.35617e-15
-2.70017e-14
-7.67598e-15
-3.17987e-14
-7.9168e-15
-3.89412e-14
-1.0391e-14
-4.63689e-14
-8.45839e-14
4.11558e-17
-5.88775e-16
-8.46087e-18
-1.57162e-16
-3.91575e-18
-7.85156e-17
-3.24122e-18
-3.38254e-17
-1.70573e-18
-2.57753e-17
-1.08545e-18
-1.16854e-17
-9.86759e-19
-8.59624e-18
-9.69783e-19
-8.3783e-18
-9.59092e-19
-8.26405e-18
-9.51715e-19
-8.17961e-18
-9.46742e-19
-8.12176e-18
-9.43239e-19
-8.0831e-18
-9.40895e-19
-8.05574e-18
-9.39253e-19
-8.03555e-18
-9.38574e-19
-8.02157e-18
-9.39813e-19
-8.01628e-18
-9.44587e-19
-8.02783e-18
-9.55758e-19
-8.07272e-18
-9.85338e-19
-8.17885e-18
-1.40132e-18
-8.47205e-18
-3.02474e-18
-1.26636e-17
-6.05196e-18
-2.97419e-17
-1.31225e-17
-5.42165e-17
-4.77762e-17
-1.52749e-16
-2.78903e-16
-4.20137e-16
-3.23912e-15
-7.02685e-16
-1.49063e-15
-2.65783e-16
-9.54702e-16
-9.18538e-16
-1.08386e-15
-1.33953e-15
-1.29946e-15
-1.67038e-15
-1.59907e-15
-2.04207e-15
-1.9774e-15
-2.49251e-15
-2.4347e-15
-3.05303e-15
-2.94373e-15
-3.69802e-15
-3.50371e-15
-4.55208e-15
-4.09305e-15
-5.56268e-15
-4.68354e-15
-6.74956e-15
-5.25668e-15
-8.17033e-15
-5.80846e-15
-9.92619e-15
-6.31326e-15
-1.19013e-14
-6.79087e-15
-1.41998e-14
-7.2399e-15
-1.68697e-14
-7.67217e-15
-2.01274e-14
-8.14563e-15
-2.39109e-14
-8.57262e-15
-2.82548e-14
-9.01101e-15
-3.3231e-14
-9.96732e-15
-4.0304e-14
-1.06416e-14
-5.04308e-14
-1.22912e-14
-5.8485e-14
-9.94571e-14
5.95774e-17
-6.24496e-16
-1.77693e-17
-4.55437e-16
-8.66882e-18
-1.27829e-16
-9.68649e-18
-1.21015e-16
-4.80319e-18
-7.31972e-17
-4.00176e-18
-4.17294e-17
-3.90819e-18
-3.51963e-17
-3.81049e-18
-3.38119e-17
-3.74173e-18
-3.29187e-17
-3.69554e-18
-3.23037e-17
-3.665e-18
-3.18954e-17
-3.64395e-18
-3.16268e-17
-3.62867e-18
-3.14365e-17
-3.61727e-18
-3.12922e-17
-3.61056e-18
-3.11842e-17
-3.61292e-18
-3.11276e-17
-3.63399e-18
-3.11781e-17
-3.69212e-18
-3.14576e-17
-3.82842e-18
-3.22012e-17
-4.98557e-18
-3.38279e-17
-9.71259e-18
-4.22352e-17
-1.6509e-17
-8.70534e-17
-3.76888e-17
-1.34617e-16
-1.09264e-16
-2.65014e-16
-3.13219e-16
-3.88634e-16
-1.96348e-15
-6.39774e-16
-1.69939e-15
-3.99435e-16
-1.03973e-15
-1.04462e-15
-1.15086e-15
-1.49639e-15
-1.37529e-15
-1.87072e-15
-1.68786e-15
-2.27909e-15
-2.08512e-15
-2.77701e-15
-2.55902e-15
-3.399e-15
-3.10195e-15
-4.1764e-15
-3.69345e-15
-5.14029e-15
-4.31362e-15
-6.2598e-15
-4.94735e-15
-7.63143e-15
-5.58667e-15
-9.32114e-15
-6.19711e-15
-1.12479e-14
-6.78103e-15
-1.35071e-14
-7.34974e-15
-1.62704e-14
-7.92211e-15
-1.93943e-14
-8.49717e-15
-2.31233e-14
-9.10709e-15
-2.74545e-14
-9.69365e-15
-3.23027e-14
-1.06039e-14
-3.83212e-14
-1.22213e-14
-4.79844e-14
-1.28576e-14
-5.91509e-14
-1.36486e-14
-6.74006e-14
-1.05639e-13
1.49548e-17
-6.54237e-16
-1.93379e-17
-4.70123e-16
-2.42689e-17
-3.35137e-16
-1.6584e-17
-1.76611e-16
-1.06817e-17
-1.14543e-16
-1.24216e-17
-1.29014e-16
-1.23524e-17
-1.21561e-16
-1.17844e-17
-1.11361e-16
-1.13964e-17
-1.04772e-16
-1.11459e-17
-1.00557e-16
-1.0985e-17
-9.78913e-17
-1.08759e-17
-9.61912e-17
-1.07962e-17
-9.50114e-17
-1.07367e-17
-9.41305e-17
-1.07007e-17
-9.34748e-17
-1.07107e-17
-9.31195e-17
-1.08196e-17
-9.34074e-17
-1.11371e-17
-9.50992e-17
-1.18549e-17
-9.98974e-17
-1.42521e-17
-1.10807e-16
-2.31754e-17
-1.20803e-16
-3.44064e-17
-1.18403e-16
-7.13816e-17
-2.72505e-16
-1.33909e-16
-3.15279e-16
-3.10288e-16
-4.33149e-16
-1.53324e-15
-6.16726e-16
-1.83414e-15
-4.91955e-16
-1.12025e-15
-1.12521e-15
-1.21042e-15
-1.61329e-15
-1.44108e-15
-2.03212e-15
-1.76406e-15
-2.48837e-15
-2.17407e-15
-3.0039e-15
-2.66749e-15
-3.67119e-15
-3.23333e-15
-4.50649e-15
-3.84452e-15
-5.50332e-15
-4.4999e-15
-6.81482e-15
-5.17452e-15
-8.29717e-15
-5.84489e-15
-1.00688e-14
-6.50328e-15
-1.21662e-14
-7.17071e-15
-1.47465e-14
-7.81738e-15
-1.77989e-14
-8.48938e-15
-2.13414e-14
-9.16699e-15
-2.53527e-14
-9.87008e-15
-3.02244e-14
-1.06603e-14
-3.53847e-14
-1.21344e-14
-4.2707e-14
-1.38933e-14
-5.33438e-14
-1.38013e-14
-6.13048e-14
-1.27851e-14
-6.28606e-14
-9.85312e-14
4.44488e-17
-7.1005e-16
-3.38383e-17
-5.01527e-16
-3.38271e-17
-3.94527e-16
-2.48692e-17
-2.8485e-16
-2.72331e-17
-2.57826e-16
-2.72517e-17
-2.11334e-16
-2.50331e-17
-1.73645e-16
-2.32695e-17
-1.51714e-16
-2.2202e-17
-1.39796e-16
-2.15592e-17
-1.329e-16
-2.11623e-17
-1.28843e-16
-2.0891e-17
-1.26331e-16
-2.06907e-17
-1.24613e-16
-2.05422e-17
-1.2336e-16
-2.04566e-17
-1.22417e-16
-2.05088e-17
-1.21757e-16
-2.08663e-17
-1.21938e-16
-2.19176e-17
-1.23892e-16
-2.44227e-17
-1.30609e-16
-2.8607e-17
-1.49413e-16
-3.58361e-17
-1.89349e-16
-6.63267e-17
-2.33274e-16
-9.39863e-17
-3.14262e-16
-1.53792e-16
-3.81555e-16
-3.19697e-16
-4.88378e-16
-1.31395e-15
-6.24865e-16
-1.93721e-15
-5.77692e-16
-1.19969e-15
-1.21452e-15
-1.26766e-15
-1.71721e-15
-1.50224e-15
-2.16324e-15
-1.83083e-15
-2.62451e-15
-2.25578e-15
-3.2052e-15
-2.76434e-15
-3.91022e-15
-3.3439e-15
-4.79433e-15
-3.98331e-15
-5.89329e-15
-4.6552e-15
-7.14082e-15
-5.36007e-15
-8.82611e-15
-6.06344e-15
-1.0719e-14
-6.77958e-15
-1.30652e-14
-7.4982e-15
-1.57483e-14
-8.21173e-15
-1.89047e-14
-8.95866e-15
-2.28908e-14
-9.72344e-15
-2.72836e-14
-1.04472e-14
-3.19887e-14
-1.14939e-14
-3.75431e-14
-1.33231e-14
-4.53378e-14
-1.45394e-14
-5.59765e-14
-1.293e-14
-6.24339e-14
-1.02149e-14
-5.70642e-14
-8.98384e-14
6.3268e-17
-7.71189e-16
-3.03251e-17
-5.42264e-16
-4.11944e-17
-4.39242e-16
-4.56926e-17
-3.66711e-16
-4.32856e-17
-3.25616e-16
-3.75521e-17
-2.76329e-16
-3.41292e-17
-2.47524e-16
-3.23968e-17
-2.33081e-16
-3.14365e-17
-2.25313e-16
-3.09009e-17
-2.21171e-16
-3.05645e-17
-2.18513e-16
-3.03147e-17
-2.16784e-16
-3.01162e-17
-2.15523e-16
-2.99534e-17
-2.14402e-16
-2.98309e-17
-2.13282e-16
-2.98709e-17
-2.11908e-16
-3.02808e-17
-2.10596e-16
-3.16783e-17
-2.09913e-16
-3.55097e-17
-2.11327e-16
-4.36791e-17
-2.20117e-16
-5.67218e-17
-2.49548e-16
-9.11212e-17
-3.08992e-16
-1.0986e-16
-3.60996e-16
-1.73874e-16
-4.39853e-16
-3.28054e-16
-5.44037e-16
-1.1873e-15
-6.54201e-16
-2.0228e-15
-6.57067e-16
-1.27823e-15
-1.28219e-15
-1.32358e-15
-1.81704e-15
-1.55639e-15
-2.272e-15
-1.8951e-15
-2.76899e-15
-2.32991e-15
-3.34948e-15
-2.8517e-15
-4.07731e-15
-3.44703e-15
-4.99195e-15
-4.09382e-15
-6.08635e-15
-4.80244e-15
-7.53392e-15
-5.52355e-15
-9.1828e-15
-6.27037e-15
-1.12413e-14
-7.01596e-15
-1.36192e-14
-7.77886e-15
-1.65562e-14
-8.56732e-15
-2.00312e-14
-9.33735e-15
-2.38833e-14
-1.00789e-14
-2.82414e-14
-1.08468e-14
-3.27331e-14
-1.21183e-14
-3.8932e-14
-1.41454e-14
-4.72409e-14
-1.45781e-14
-5.78474e-14
-1.11191e-14
-5.89987e-14
-7.66177e-15
-5.15238e-14
-8.61357e-14
7.87768e-17
-8.30516e-16
-2.67753e-17
-5.94493e-16
-4.65086e-17
-4.80621e-16
-5.55878e-17
-4.2709e-16
-5.17165e-17
-3.76636e-16
-4.88553e-17
-3.36639e-16
-4.82382e-17
-3.17139e-16
-4.80832e-17
-3.07541e-16
-4.79837e-17
-3.02008e-16
-4.78726e-17
-2.98326e-16
-4.77704e-17
-2.9574e-16
-4.76469e-17
-2.94215e-16
-4.74941e-17
-2.92916e-16
-4.73091e-17
-2.91763e-16
-4.70839e-17
-2.9022e-16
-4.69544e-17
-2.88954e-16
-4.71009e-17
-2.87213e-16
-4.80791e-17
-2.86354e-16
-5.1348e-17
-2.86529e-16
-5.95435e-17
-2.90341e-16
-7.50769e-17
-3.07441e-16
-1.07528e-16
-3.61303e-16
-1.26776e-16
-4.06979e-16
-1.92143e-16
-4.91675e-16
-3.36264e-16
-5.94786e-16
-1.10835e-15
-7.03618e-16
-2.0931e-15
-7.39591e-16
-1.35643e-15
-1.3496e-15
-1.37734e-15
-1.89738e-15
-1.61082e-15
-2.38662e-15
-1.95291e-15
-2.88073e-15
-2.39534e-15
-3.47393e-15
-2.92822e-15
-4.22103e-15
-3.53178e-15
-5.15584e-15
-4.20748e-15
-6.32458e-15
-4.92504e-15
-7.77117e-15
-5.67028e-15
-9.46897e-15
-6.43916e-15
-1.15998e-14
-7.23165e-15
-1.41647e-14
-8.04587e-15
-1.72297e-14
-8.84767e-15
-2.08236e-14
-9.60166e-15
-2.48175e-14
-1.02532e-14
-2.88971e-14
-1.11043e-14
-3.29298e-14
-1.25611e-14
-3.89724e-14
-1.46926e-14
-4.81527e-14
-1.36154e-14
-5.74839e-14
-8.8421e-15
-5.25855e-14
-5.70369e-15
-4.57206e-14
-8.16233e-14
9.18613e-17
-8.84299e-16
-2.35295e-17
-6.52979e-16
-5.0717e-17
-5.27106e-16
-6.11765e-17
-4.77792e-16
-5.87603e-17
-4.21934e-16
-5.95257e-17
-3.89555e-16
-6.10383e-17
-3.75486e-16
-6.18274e-17
-3.6691e-16
-6.20966e-17
-3.61298e-16
-6.21097e-17
-3.57035e-16
-6.21105e-17
-3.54074e-16
-6.20012e-17
-3.52202e-16
-6.184e-17
-3.50423e-16
-6.15984e-17
-3.49068e-16
-6.13729e-17
-3.48031e-16
-6.11664e-17
-3.46205e-16
-6.13437e-17
-3.44745e-16
-6.23057e-17
-3.43836e-16
-6.54219e-17
-3.44741e-16
-7.33708e-17
-3.48449e-16
-9.0459e-17
-3.59686e-16
-1.20371e-16
-4.0413e-16
-1.43578e-16
-4.54514e-16
-2.09052e-16
-5.38888e-16
-3.46449e-16
-6.40864e-16
-1.05627e-15
-7.58925e-16
-2.1506e-15
-8.15741e-16
-1.43278e-15
-1.41251e-15
-1.43095e-15
-1.96761e-15
-1.66013e-15
-2.47183e-15
-2.00643e-15
-2.97395e-15
-2.45944e-15
-3.601e-15
-3.00251e-15
-4.39074e-15
-3.61862e-15
-5.31879e-15
-4.30709e-15
-6.51621e-15
-5.03349e-15
-7.94028e-15
-5.80837e-15
-9.81727e-15
-6.6013e-15
-1.1936e-14
-7.42728e-15
-1.45755e-14
-8.25901e-15
-1.77111e-14
-9.05013e-15
-2.11563e-14
-9.71701e-15
-2.49981e-14
-1.02414e-14
-2.83243e-14
-1.11985e-14
-3.25631e-14
-1.28776e-14
-3.89259e-14
-1.47032e-14
-4.79166e-14
-1.17782e-14
-5.31598e-14
-6.79537e-15
-4.82857e-14
-4.21868e-15
-4.19338e-14
-7.97443e-14
1.03126e-16
-9.32955e-16
-2.06484e-17
-7.13188e-16
-5.48381e-17
-5.7848e-16
-6.5135e-17
-5.24502e-16
-6.539e-17
-4.68621e-16
-6.88879e-17
-4.41689e-16
-7.13483e-17
-4.27428e-16
-7.24198e-17
-4.17262e-16
-7.27036e-17
-4.10111e-16
-7.27449e-17
-4.04608e-16
-7.27871e-17
-4.01787e-16
-7.26029e-17
-3.99362e-16
-7.24312e-17
-3.97182e-16
-7.22235e-17
-3.96121e-16
-7.19152e-17
-3.94167e-16
-7.17409e-17
-3.92867e-16
-7.19849e-17
-3.91516e-16
-7.31717e-17
-3.9068e-16
-7.66194e-17
-3.92559e-16
-8.47631e-17
-3.97925e-16
-1.03468e-16
-4.0847e-16
-1.32904e-16
-4.44752e-16
-1.59941e-16
-5.03328e-16
-2.24981e-16
-5.83646e-16
-3.58862e-16
-6.83305e-16
-1.02037e-15
-8.21265e-16
-2.19899e-15
-9.04376e-16
-1.50838e-15
-1.48456e-15
-1.48493e-15
-2.05532e-15
-1.7084e-15
-2.57728e-15
-2.06206e-15
-3.09188e-15
-2.52348e-15
-3.73054e-15
-3.06994e-15
-4.47077e-15
-3.70253e-15
-5.48048e-15
-4.39606e-15
-6.70294e-15
-5.14582e-15
-8.15473e-15
-5.92695e-15
-9.92458e-15
-6.74638e-15
-1.22407e-14
-7.58345e-15
-1.48124e-14
-8.39776e-15
-1.7937e-14
-9.14116e-15
-2.14011e-14
-9.62813e-15
-2.46726e-14
-1.01281e-14
-2.77407e-14
-1.12267e-14
-3.17077e-14
-1.30545e-14
-3.84088e-14
-1.41789e-14
-4.73861e-14
-1.00757e-14
-5.1434e-14
-5.20837e-15
-4.39316e-14
-3.24502e-15
-4.00131e-14
-7.493e-14
1.12628e-16
-9.7983e-16
-1.80055e-17
-7.74382e-16
-5.88739e-17
-6.35526e-16
-6.91205e-17
-5.71481e-16
-7.2585e-17
-5.18536e-16
-7.75554e-17
-4.93881e-16
-8.01478e-17
-4.76586e-16
-8.11919e-17
-4.64018e-16
-8.13994e-17
-4.55503e-16
-8.15619e-17
-4.49724e-16
-8.15551e-17
-4.45652e-16
-8.13447e-17
-4.42543e-16
-8.12633e-17
-4.41415e-16
-8.09036e-17
-4.39167e-16
-8.06325e-17
-4.3739e-16
-8.04975e-17
-4.36072e-16
-8.082e-17
-4.34763e-16
-8.23178e-17
-4.34706e-16
-8.62771e-17
-4.36388e-16
-9.50424e-17
-4.44025e-16
-1.15341e-16
-4.58715e-16
-1.46392e-16
-4.90053e-16
-1.75756e-16
-5.54522e-16
-2.40308e-16
-6.29265e-16
-3.74207e-16
-7.25888e-16
-9.96887e-16
-8.80426e-16
-2.23905e-15
-9.85001e-16
-1.58406e-15
-1.55285e-15
-1.53964e-15
-2.13187e-15
-1.75688e-15
-2.6475e-15
-2.11632e-15
-3.20663e-15
-2.5761e-15
-3.80367e-15
-3.13699e-15
-4.61126e-15
-3.77569e-15
-5.55211e-15
-4.47872e-15
-6.7759e-15
-5.239e-15
-8.357e-15
-6.03952e-15
-1.01502e-14
-6.85615e-15
-1.23052e-14
-7.70285e-15
-1.50769e-14
-8.48176e-15
-1.79871e-14
-9.09089e-15
-2.11492e-14
-9.40679e-15
-2.36744e-14
-9.8889e-15
-2.60855e-14
-1.11734e-14
-3.03784e-14
-1.30998e-14
-3.72621e-14
-1.35215e-14
-4.58961e-14
-8.33476e-15
-4.71423e-14
-4.05417e-15
-4.14507e-14
-2.28423e-15
-3.68232e-14
-7.55034e-14
1.19837e-16
-1.03079e-15
-1.60112e-17
-8.39454e-16
-6.28763e-17
-6.97101e-16
-7.39756e-17
-6.23182e-16
-8.0339e-17
-5.72801e-16
-8.57935e-17
-5.46725e-16
-8.83199e-17
-5.26012e-16
-8.93548e-17
-5.11252e-16
-8.96499e-17
-5.0049e-16
-8.98615e-17
-4.95105e-16
-8.98249e-17
-4.90405e-16
-8.98082e-17
-4.8811e-16
-8.962e-17
-4.85926e-16
-8.92732e-17
-4.84593e-16
-8.90406e-17
-4.82933e-16
-8.88851e-17
-4.81143e-16
-8.93368e-17
-4.79744e-16
-9.10091e-17
-4.79085e-16
-9.56517e-17
-4.81652e-16
-1.05454e-16
-4.90669e-16
-1.2704e-16
-5.07569e-16
-1.60935e-16
-5.3771e-16
-1.91039e-16
-6.05498e-16
-2.55313e-16
-6.74686e-16
-3.91595e-16
-7.68026e-16
-9.81735e-16
-9.42282e-16
-2.2711e-15
-1.0665e-15
-1.65704e-15
-1.61303e-15
-1.59175e-15
-2.21121e-15
-1.80535e-15
-2.74743e-15
-2.16005e-15
-3.26205e-15
-2.6309e-15
-3.90215e-15
-3.19184e-15
-4.67718e-15
-3.83866e-15
-5.65522e-15
-4.55829e-15
-6.884e-15
-5.32137e-15
-8.40617e-15
-6.12678e-15
-1.02633e-14
-6.95824e-15
-1.24986e-14
-7.76851e-15
-1.49918e-14
-8.4873e-15
-1.79878e-14
-8.89461e-15
-2.06459e-14
-9.04985e-15
-2.25191e-14
-9.63122e-15
-2.47228e-14
-1.10838e-14
-2.93824e-14
-1.30437e-14
-3.59512e-14
-1.24427e-14
-4.50151e-14
-6.69984e-15
-4.11869e-14
-3.07602e-15
-3.81276e-14
-2.11023e-15
-3.75826e-14
-7.49654e-14
1.24914e-16
-1.08069e-15
-1.42552e-17
-9.0178e-16
-6.66748e-17
-7.57406e-16
-7.97008e-17
-6.74488e-16
-8.83091e-17
-6.28409e-16
-9.38006e-17
-5.98982e-16
-9.64263e-17
-5.75785e-16
-9.75257e-17
-5.60027e-16
-9.81267e-17
-5.49394e-16
-9.83732e-17
-5.42316e-16
-9.85497e-17
-5.38727e-16
-9.8497e-17
-5.34934e-16
-9.8399e-17
-5.33302e-16
-9.80845e-17
-5.31989e-16
-9.78384e-17
-5.30051e-16
-9.77009e-17
-5.29108e-16
-9.81033e-17
-5.27548e-16
-9.99698e-17
-5.25541e-16
-1.0527e-16
-5.27554e-16
-1.16018e-16
-5.37594e-16
-1.38787e-16
-5.5813e-16
-1.76072e-16
-5.90015e-16
-2.05865e-16
-6.5867e-16
-2.70337e-16
-7.25087e-16
-4.11308e-16
-8.1751e-16
-9.73512e-16
-9.9629e-16
-2.29842e-15
-1.16154e-15
-1.73079e-15
-1.69947e-15
-1.64615e-15
-2.2935e-15
-1.84973e-15
-2.84029e-15
-2.20732e-15
-3.38043e-15
-2.68013e-15
-3.99908e-15
-3.24612e-15
-4.77272e-15
-3.9016e-15
-5.74939e-15
-4.62191e-15
-6.97593e-15
-5.38786e-15
-8.42009e-15
-6.20209e-15
-1.03335e-14
-7.01083e-15
-1.24162e-14
-7.79941e-15
-1.50174e-14
-8.37262e-15
-1.74626e-14
-8.56711e-15
-1.93974e-14
-8.66625e-15
-2.09181e-14
-9.4253e-15
-2.33534e-14
-1.09417e-14
-2.80358e-14
-1.29607e-14
-3.43667e-14
-1.11363e-14
-4.25262e-14
-5.67498e-15
-4.16862e-14
-2.52554e-15
-3.67356e-14
-1.62989e-15
-3.36637e-14
-7.06937e-14
1.28517e-16
-1.13413e-15
-1.25278e-17
-9.65931e-16
-7.02119e-17
-8.22567e-16
-8.62045e-17
-7.33992e-16
-9.62059e-17
-6.85132e-16
-1.01805e-16
-6.54156e-16
-1.0476e-16
-6.28275e-16
-1.06205e-16
-6.11151e-16
-1.06993e-16
-5.99962e-16
-1.07504e-16
-5.92546e-16
-1.07702e-16
-5.89084e-16
-1.07833e-16
-5.86691e-16
-1.07742e-16
-5.85122e-16
-1.07369e-16
-5.82096e-16
-1.07242e-16
-5.82108e-16
-1.07012e-16
-5.7918e-16
-1.07323e-16
-5.77445e-16
-1.09394e-16
-5.77171e-16
-1.15234e-16
-5.78039e-16
-1.27024e-16
-5.86437e-16
-1.50996e-16
-6.08503e-16
-1.91517e-16
-6.43074e-16
-2.20698e-16
-7.0931e-16
-2.86101e-16
-7.78303e-16
-4.31765e-16
-8.69808e-16
-9.72994e-16
-1.05365e-15
-2.32122e-15
-1.23918e-15
-1.80097e-15
-1.75578e-15
-1.69818e-15
-2.36045e-15
-1.89391e-15
-2.90012e-15
-2.2522e-15
-3.45052e-15
-2.72843e-15
-4.09446e-15
-3.29889e-15
-4.86337e-15
-3.95923e-15
-5.83389e-15
-4.67651e-15
-7.05092e-15
-5.45243e-15
-8.54701e-15
-6.24261e-15
-1.02636e-14
-7.04892e-15
-1.24663e-14
-7.73472e-15
-1.46411e-14
-8.1328e-15
-1.68077e-14
-8.15071e-15
-1.82726e-14
-8.25949e-15
-1.89772e-14
-9.17871e-15
-2.16981e-14
-1.07317e-14
-2.63841e-14
-1.26943e-14
-3.28142e-14
-1.01393e-14
-3.95747e-14
-4.64436e-15
-3.72837e-14
-1.83497e-15
-3.37503e-14
-1.27147e-15
-3.51037e-14
-7.06157e-14
1.29874e-16
-1.20207e-15
-1.16682e-17
-1.03203e-15
-7.42894e-17
-8.8975e-16
-9.3311e-17
-7.94456e-16
-1.04547e-16
-7.4754e-16
-1.10089e-16
-7.11565e-16
-1.13431e-16
-6.82244e-16
-1.15333e-16
-6.6445e-16
-1.16509e-16
-6.5507e-16
-1.17342e-16
-6.48742e-16
-1.17687e-16
-6.44009e-16
-1.17911e-16
-6.41679e-16
-1.17662e-16
-6.38119e-16
-1.17583e-16
-6.38712e-16
-1.17128e-16
-6.35695e-16
-1.16889e-16
-6.33699e-16
-1.17359e-16
-6.31805e-16
-1.19493e-16
-6.30525e-16
-1.25695e-16
-6.31704e-16
-1.38502e-16
-6.39269e-16
-1.63737e-16
-6.6276e-16
-2.06946e-16
-7.0195e-16
-2.36034e-16
-7.65906e-16
-3.0243e-16
-8.35946e-16
-4.53143e-16
-9.29724e-16
-9.77275e-16
-1.10901e-15
-2.33974e-15
-1.33868e-15
-1.86994e-15
-1.84872e-15
-1.7486e-15
-2.44736e-15
-1.9367e-15
-2.99461e-15
-2.29496e-15
-3.54677e-15
-2.77038e-15
-4.15312e-15
-3.3449e-15
-4.90642e-15
-4.00783e-15
-5.89859e-15
-4.72527e-15
-7.04422e-15
-5.48829e-15
-8.49684e-15
-6.2755e-15
-1.02271e-14
-7.01677e-15
-1.21559e-14
-7.60667e-15
-1.4256e-14
-7.8221e-15
-1.58812e-14
-7.66987e-15
-1.66177e-14
-7.89953e-15
-1.76819e-14
-8.91871e-15
-2.02182e-14
-1.04953e-14
-2.47755e-14
-1.22784e-14
-3.06591e-14
-8.93945e-15
-3.68595e-14
-3.722e-15
-3.49838e-14
-1.65441e-15
-3.39587e-14
-9.64868e-16
-3.17289e-14
-6.78168e-14
1.29986e-16
-1.2757e-15
-1.13715e-17
-1.09853e-15
-7.83912e-17
-9.58105e-16
-1.01392e-16
-8.61747e-16
-1.13105e-16
-8.12683e-16
-1.18599e-16
-7.69773e-16
-1.22688e-16
-7.42225e-16
-1.25234e-16
-7.22669e-16
-1.26834e-16
-7.11153e-16
-1.27878e-16
-7.0633e-16
-1.28378e-16
-7.02125e-16
-1.28458e-16
-6.99803e-16
-1.28567e-16
-6.98045e-16
-1.28163e-16
-6.94523e-16
-1.27823e-16
-6.93919e-16
-1.2765e-16
-6.93538e-16
-1.2798e-16
-6.9044e-16
-1.30164e-16
-6.87745e-16
-1.36731e-16
-6.88679e-16
-1.50707e-16
-6.95326e-16
-1.77373e-16
-7.18917e-16
-2.2265e-16
-7.59194e-16
-2.52206e-16
-8.22506e-16
-3.20111e-16
-9.00547e-16
-4.74846e-16
-9.98263e-16
-9.88606e-16
-1.16909e-15
-2.35757e-15
-1.42704e-15
-1.93656e-15
-1.91188e-15
-1.8004e-15
-2.51753e-15
-1.98059e-15
-3.08808e-15
-2.3327e-15
-3.61332e-15
-2.80824e-15
-4.24266e-15
-3.38553e-15
-4.98369e-15
-4.03993e-15
-5.87367e-15
-4.75917e-15
-7.07838e-15
-5.51423e-15
-8.48869e-15
-6.2679e-15
-1.01391e-14
-6.94862e-15
-1.19012e-14
-7.40194e-15
-1.3594e-14
-7.41859e-15
-1.47899e-14
-7.23434e-15
-1.50898e-14
-7.57679e-15
-1.61869e-14
-8.68275e-15
-1.89847e-14
-1.02129e-14
-2.32666e-14
-1.18539e-14
-2.87972e-14
-7.98259e-15
-3.47294e-14
-3.21572e-15
-3.27163e-14
-1.14768e-15
-3.21496e-14
-6.35647e-16
-3.11771e-14
-6.64955e-14
1.2967e-16
-1.35934e-15
-1.15157e-17
-1.16512e-15
-8.30071e-17
-1.02691e-15
-1.09837e-16
-9.29222e-16
-1.21565e-16
-8.76931e-16
-1.27983e-16
-8.34301e-16
-1.32801e-16
-8.03707e-16
-1.35928e-16
-7.88151e-16
-1.37899e-16
-7.76097e-16
-1.39019e-16
-7.67848e-16
-1.39735e-16
-7.64246e-16
-1.39971e-16
-7.61849e-16
-1.39879e-16
-7.60019e-16
-1.3962e-16
-7.58527e-16
-1.39353e-16
-7.5605e-16
-1.38945e-16
-7.52758e-16
-1.39257e-16
-7.51679e-16
-1.41584e-16
-7.50177e-16
-1.48376e-16
-7.49845e-16
-1.63367e-16
-7.55872e-16
-1.91312e-16
-7.76003e-16
-2.38528e-16
-8.23405e-16
-2.69495e-16
-8.84405e-16
-3.38904e-16
-9.64623e-16
-4.96449e-16
-1.06928e-15
-1.00401e-15
-1.23137e-15
-2.37041e-15
-1.51775e-15
-2.00093e-15
-2.00052e-15
-1.85277e-15
-2.60988e-15
-2.02005e-15
-3.16707e-15
-2.37085e-15
-3.70882e-15
-2.84281e-15
-4.29262e-15
-3.41572e-15
-5.00976e-15
-4.07486e-15
-5.96624e-15
-4.78217e-15
-7.02522e-15
-5.51917e-15
-8.36554e-15
-6.23062e-15
-9.9003e-15
-6.83655e-15
-1.15058e-14
-7.1448e-15
-1.3066e-14
-6.98183e-15
-1.35102e-14
-6.81654e-15
-1.36118e-14
-7.28372e-15
-1.46929e-14
-8.45209e-15
-1.77248e-14
-9.92987e-15
-2.18873e-14
-1.14074e-14
-2.67854e-14
-6.95842e-15
-3.13368e-14
-2.59154e-15
-2.87221e-14
-8.72803e-16
-3.03308e-14
-7.81081e-16
-3.21112e-14
-6.90394e-14
1.29243e-16
-1.44503e-15
-1.25984e-17
-1.24193e-15
-8.81644e-17
-1.09985e-15
-1.18547e-16
-1.0056e-15
-1.30616e-16
-9.46153e-16
-1.37777e-16
-8.99094e-16
-1.43866e-16
-8.69838e-16
-1.47516e-16
-8.52108e-16
-1.49751e-16
-8.42341e-16
-1.51045e-16
-8.36234e-16
-1.51763e-16
-8.29378e-16
-1.52032e-16
-8.26824e-16
-1.52082e-16
-8.24874e-16
-1.51788e-16
-8.23303e-16
-1.51261e-16
-8.21684e-16
-1.50983e-16
-8.19771e-16
-1.51358e-16
-8.17559e-16
-1.53665e-16
-8.1529e-16
-1.6072e-16
-8.14267e-16
-1.76366e-16
-8.20208e-16
-2.06477e-16
-8.3879e-16
-2.54964e-16
-8.89346e-16
-2.87547e-16
-9.48942e-16
-3.58739e-16
-1.03746e-15
-5.17935e-16
-1.14433e-15
-1.02439e-15
-1.30859e-15
-2.38517e-15
-1.62024e-15
-2.06561e-15
-2.09651e-15
-1.90285e-15
-2.68379e-15
-2.05949e-15
-3.25314e-15
-2.40204e-15
-3.77234e-15
-2.87074e-15
-4.33699e-15
-3.44991e-15
-5.07456e-15
-4.09474e-15
-5.948e-15
-4.79209e-15
-7.01819e-15
-5.50471e-15
-8.28975e-15
-6.16801e-15
-9.71145e-15
-6.69575e-15
-1.1098e-14
-6.81567e-15
-1.21e-14
-6.54253e-15
-1.23498e-14
-6.43034e-15
-1.21297e-14
-7.0191e-15
-1.35926e-14
-8.1763e-15
-1.60453e-14
-9.59308e-15
-1.99555e-14
-1.08621e-14
-2.51419e-14
-6.09253e-15
-2.87367e-14
-2.45124e-15
-3.03162e-14
-7.79739e-16
-3.04908e-14
-6.91127e-16
-2.85105e-14
-6.22858e-14
1.27708e-16
-1.54407e-15
-1.44368e-17
-1.3202e-15
-9.43867e-17
-1.17403e-15
-1.2755e-16
-1.0797e-15
-1.40177e-16
-1.01793e-15
-1.48698e-16
-9.74337e-16
-1.55566e-16
-9.43662e-16
-1.59676e-16
-9.24636e-16
-1.62305e-16
-9.10873e-16
-1.63563e-16
-9.04278e-16
-1.64514e-16
-8.99764e-16
-1.64805e-16
-8.96969e-16
-1.64867e-16
-8.94846e-16
-1.64613e-16
-8.93168e-16
-1.64192e-16
-8.91475e-16
-1.63896e-16
-8.89502e-16
-1.64133e-16
-8.87252e-16
-1.66406e-16
-8.84997e-16
-1.73752e-16
-8.84117e-16
-1.90081e-16
-8.87298e-16
-2.22459e-16
-9.08073e-16
-2.71406e-16
-9.54279e-16
-3.06832e-16
-1.01551e-15
-3.79728e-16
-1.11113e-15
-5.40973e-16
-1.22973e-15
-1.04942e-15
-1.39035e-15
-2.40049e-15
-1.72738e-15
-2.12571e-15
-2.18124e-15
-1.95314e-15
-2.78198e-15
-2.09604e-15
-3.33194e-15
-2.43237e-15
-3.8682e-15
-2.90302e-15
-4.43231e-15
-3.47205e-15
-5.12788e-15
-4.10832e-15
-5.91413e-15
-4.79584e-15
-6.99559e-15
-5.47456e-15
-8.13227e-15
-6.08061e-15
-9.36555e-15
-6.49521e-15
-1.06422e-14
-6.46166e-15
-1.12176e-14
-6.11436e-15
-1.10366e-14
-6.12913e-15
-1.1191e-14
-6.73495e-15
-1.24085e-14
-7.8686e-15
-1.48424e-14
-9.26804e-15
-1.80311e-14
-1.04071e-14
-2.32361e-14
-5.88883e-15
-2.84433e-14
-2.36147e-15
-2.91864e-14
-4.71147e-16
-2.91363e-14
-4.27525e-16
-3.05159e-14
-6.37561e-14
1.26441e-16
-1.64027e-15
-1.68916e-17
-1.40498e-15
-1.01261e-16
-1.25581e-15
-1.37015e-16
-1.16258e-15
-1.5091e-16
-1.09511e-15
-1.60423e-16
-1.04723e-15
-1.67998e-16
-1.01655e-15
-1.72421e-16
-9.95635e-16
-1.75432e-16
-9.88024e-16
-1.76774e-16
-9.76891e-16
-1.77958e-16
-9.71902e-16
-1.78266e-16
-9.68809e-16
-1.78338e-16
-9.66491e-16
-1.78071e-16
-9.64697e-16
-1.77585e-16
-9.62931e-16
-1.77104e-16
-9.6011e-16
-1.7732e-16
-9.54939e-16
-1.79818e-16
-9.5558e-16
-1.87363e-16
-9.55891e-16
-2.04848e-16
-9.61629e-16
-2.38692e-16
-9.80592e-16
-2.8854e-16
-1.02565e-15
-3.27257e-16
-1.09211e-15
-4.01976e-16
-1.18877e-15
-5.6429e-16
-1.30907e-15
-1.07755e-15
-1.48121e-15
-2.4135e-15
-1.82877e-15
-2.1853e-15
-2.28425e-15
-2.00168e-15
-2.86016e-15
-2.13406e-15
-3.43422e-15
-2.46232e-15
-3.93e-15
-2.92743e-15
-4.48422e-15
-3.48192e-15
-5.09513e-15
-4.11924e-15
-5.92897e-15
-4.78e-15
-6.88212e-15
-5.4223e-15
-8.01285e-15
-5.97083e-15
-9.07412e-15
-6.25144e-15
-9.99593e-15
-6.08323e-15
-1.01789e-14
-5.74672e-15
-9.9052e-15
-5.84435e-15
-1.00514e-14
-6.48551e-15
-1.15015e-14
-7.56367e-15
-1.35329e-14
-8.97079e-15
-1.67539e-14
-1.0065e-14
-2.11109e-14
-5.38007e-15
-2.56505e-14
-1.93737e-15
-2.55073e-14
-4.60819e-16
-2.79919e-14
-5.54874e-16
-2.88276e-14
-6.287e-14
1.24564e-16
-1.74689e-15
-2.07616e-17
-1.49642e-15
-1.09551e-16
-1.34575e-15
-1.47168e-16
-1.24571e-15
-1.61948e-16
-1.17846e-15
-1.7252e-16
-1.12541e-15
-1.80995e-16
-1.09801e-15
-1.86441e-16
-1.07939e-15
-1.89045e-16
-1.06278e-15
-1.90666e-16
-1.05431e-15
-1.91925e-16
-1.04879e-15
-1.92239e-16
-1.04537e-15
-1.92155e-16
-1.04253e-15
-1.91719e-16
-1.03677e-15
-1.91165e-16
-1.03496e-15
-1.90588e-16
-1.03371e-15
-1.91236e-16
-1.03444e-15
-1.9377e-16
-1.0295e-15
-2.01968e-16
-1.03248e-15
-2.20214e-16
-1.03909e-15
-2.55574e-16
-1.05517e-15
-3.07207e-16
-1.103e-15
-3.486e-16
-1.17067e-15
-4.24281e-16
-1.27028e-15
-5.88576e-16
-1.38955e-15
-1.10723e-15
-1.57939e-15
-2.42651e-15
-1.93229e-15
-2.24032e-15
-2.36315e-15
-2.05131e-15
-2.96505e-15
-2.16779e-15
-3.50862e-15
-2.48867e-15
-4.02779e-15
-2.94299e-15
-4.53521e-15
-3.49872e-15
-5.18952e-15
-4.11679e-15
-5.93638e-15
-4.75135e-15
-6.74805e-15
-5.3505e-15
-7.71141e-15
-5.83196e-15
-8.74651e-15
-5.97874e-15
-9.41321e-15
-5.71618e-15
-9.31182e-15
-5.39922e-15
-8.70543e-15
-5.58746e-15
-9.17978e-15
-6.21529e-15
-1.02654e-14
-7.30818e-15
-1.24375e-14
-8.65964e-15
-1.55098e-14
-9.60099e-15
-1.92828e-14
-4.92693e-15
-2.32688e-14
-1.93677e-15
-2.88237e-14
-2.32366e-16
-2.64617e-14
-4.38887e-16
-2.73085e-14
-6.05838e-14
1.2279e-16
-1.83553e-15
-2.55834e-17
-1.59423e-15
-1.18148e-16
-1.43202e-15
-1.57977e-16
-1.33873e-15
-1.73575e-16
-1.25798e-15
-1.86114e-16
-1.21412e-15
-1.95292e-16
-1.1805e-15
-2.00393e-16
-1.16025e-15
-2.03294e-16
-1.14174e-15
-2.05305e-16
-1.13553e-15
-2.06516e-16
-1.1286e-15
-2.06745e-16
-1.12253e-15
-2.06477e-16
-1.12013e-15
-2.06237e-16
-1.12087e-15
-2.05638e-16
-1.11559e-15
-2.05476e-16
-1.11353e-15
-2.05691e-16
-1.11126e-15
-2.08606e-16
-1.10922e-15
-2.17019e-16
-1.10966e-15
-2.35742e-16
-1.11556e-15
-2.73262e-16
-1.13502e-15
-3.26548e-16
-1.1817e-15
-3.70443e-16
-1.25495e-15
-4.4675e-16
-1.3498e-15
-6.14993e-16
-1.47824e-15
-1.13869e-15
-1.68259e-15
-2.44035e-15
-2.06029e-15
-2.29723e-15
-2.49208e-15
-2.09789e-15
-3.04793e-15
-2.2029e-15
-3.61599e-15
-2.51193e-15
-4.08951e-15
-2.96435e-15
-4.61519e-15
-3.50656e-15
-5.18327e-15
-4.10349e-15
-5.87025e-15
-4.71556e-15
-6.75862e-15
-5.27481e-15
-7.56978e-15
-5.67004e-15
-8.4056e-15
-5.69581e-15
-8.64659e-15
-5.36039e-15
-8.47181e-15
-5.10911e-15
-7.88599e-15
-5.31661e-15