/*--------------------------------*- C++ -*----------------------------------*\
| =========                 |                                                 |
| \\      /  F ield         | OpenFOAM: The Open Source CFD Toolbox           |
|  \\    /   O peration     | Version:  v1912                                 |
|   \\  /    A nd           | Website:  www.openfoam.com                      |
|    \\/     M anipulation  |                                                 |
\*---------------------------------------------------------------------------*/
FoamFile
{
    version     2.0;
    format      ascii;
    class       volVectorField;
    location    "31536000";
    object      Uvol;
}
// * * * * * * * * * * * * * * * * * * * * * * * * * * * * * * * * * * * * * //

dimensions      [0 1 -1 0 0 0 0];


internalField   nonuniform List<vector> 
4250
(
(-2.5884e-18 -0 -1.60338e-17)
(3.09523e-19 -9.33677e-34 -1.38844e-18)
(-7.82474e-20 -0 -5.12297e-19)
(-1.1069e-20 1.87152e-33 -1.58789e-19)
(-9.74956e-21 -0 -1.22742e-19)
(1.25196e-21 -0 -6.32478e-20)
(2.67253e-21 -0 -5.01973e-20)
(2.83263e-21 -0 -4.85578e-20)
(3.03755e-21 -0 -4.74477e-20)
(3.16939e-21 -0 -4.66482e-20)
(3.25158e-21 -0 -4.61384e-20)
(3.32244e-21 -0 -4.58098e-20)
(3.35602e-21 -0 -4.5544e-20)
(3.34722e-21 -0 -4.54399e-20)
(3.36016e-21 -9.357e-34 -4.54137e-20)
(3.3465e-21 -1.87144e-33 -4.54543e-20)
(3.26196e-21 -0 -4.57058e-20)
(3.08318e-21 -1.87144e-33 -4.63241e-20)
(2.76014e-21 -0 -4.75916e-20)
(1.65563e-21 -9.35712e-34 -5.05394e-20)
(-5.17472e-21 1.87147e-33 -7.36899e-20)
(-2.8234e-20 1.87155e-33 -1.60535e-19)
(-9.12067e-20 -6.90543e-37 -3.80726e-19)
(-3.57587e-19 -9.37497e-34 -9.16208e-19)
(-3.77055e-18 -9.3639e-36 -4.38182e-18)
(-3.93839e-17 -2.17577e-33 -4.23626e-17)
(-1.34053e-14 -4.7623e-32 1.71126e-15)
(-6.90714e-16 -1.29742e-31 -6.36547e-17)
(-7.83871e-16 8.39077e-32 -1.40323e-16)
(-9.14892e-16 2.1108e-31 -1.75061e-16)
(-1.11355e-15 2.6247e-31 -2.14153e-16)
(-1.38623e-15 -1.62426e-31 -2.58535e-16)
(-1.72668e-15 2.00556e-31 -3.03387e-16)
(-2.12222e-15 -0 -3.5901e-16)
(-2.55345e-15 -3.00071e-31 -4.2253e-16)
(-3.00277e-15 -3.63259e-31 -5.20134e-16)
(-3.44307e-15 -0 -6.35962e-16)
(-3.84392e-15 5.04555e-31 -7.83719e-16)
(-4.19306e-15 -1.15357e-30 -1.0092e-15)
(-4.45558e-15 -1.3029e-30 -1.25517e-15)
(-4.6129e-15 -0 -1.56332e-15)
(-4.66416e-15 -0 -1.94573e-15)
(-4.61935e-15 -0 -2.4787e-15)
(-4.48285e-15 -0 -3.17249e-15)
(-4.21395e-15 -0 -3.9043e-15)
(-3.83147e-15 -0 -5.01887e-15)
(-3.35076e-15 -0 -6.21529e-15)
(-2.90299e-15 -0 -7.79031e-15)
(-4.36673e-15 -0 -8.74783e-15)
(-2.21812e-13 -0 -6.50022e-15)
(-1.43573e-17 -0 -8.54131e-17)
(5.22889e-19 1.88028e-35 -8.73456e-18)
(-5.03903e-19 -0 -3.33853e-18)
(-1.29913e-19 -1.97487e-36 -9.73069e-19)
(-1.31174e-19 -0 -7.83896e-19)
(-5.05086e-20 -0 -3.63014e-19)
(-3.88058e-20 -0 -2.65892e-19)
(-3.85525e-20 -0 -2.57047e-19)
(-3.76095e-20 -0 -2.51772e-19)
(-3.69327e-20 -0 -2.47908e-19)
(-3.65006e-20 -0 -2.45382e-19)
(-3.6198e-20 -0 -2.43757e-19)
(-3.60043e-20 -0 -2.42564e-19)
(-3.59383e-20 -0 -2.41951e-19)
(-3.5901e-20 -0 -2.41721e-19)
(-3.59766e-20 3.89654e-37 -2.41914e-19)
(-3.63062e-20 -0 -2.43065e-19)
(-3.70434e-20 3.98301e-37 -2.45903e-19)
(-3.85291e-20 -0 -2.5167e-19)
(-4.44669e-20 -0 -2.66438e-19)
(-8.68364e-20 -7.75652e-37 -4.1995e-19)
(-2.24826e-19 -1.96859e-36 -9.70174e-19)
(-5.58698e-19 -4.83214e-36 -2.29095e-18)
(-1.64246e-18 -0 -5.09346e-18)
(-1.11372e-17 -4.82551e-35 -2.23205e-17)
(-7.59348e-17 -1.01737e-33 -1.46941e-16)
(-7.53622e-15 8.26268e-32 2.12931e-15)
(-1.06298e-15 6.63403e-32 -2.21985e-16)
(-8.57816e-16 8.54846e-32 -4.60565e-16)
(-9.97569e-16 -1.08378e-31 -5.85437e-16)
(-1.2096e-15 -9.96866e-34 -7.02157e-16)
(-1.49935e-15 1.65268e-31 -8.51878e-16)
(-1.85768e-15 -0 -1.01661e-15)
(-2.27579e-15 -0 -1.22111e-15)
(-2.73697e-15 -0 -1.47672e-15)
(-3.22184e-15 6.00313e-34 -1.79547e-15)
(-3.69999e-15 -0 -2.16584e-15)
(-4.15821e-15 5.70759e-34 -2.64791e-15)
(-4.57876e-15 5.8216e-31 -3.27797e-15)
(-4.92337e-15 -2.46152e-33 -4.00951e-15)
(-5.1895e-15 -0 -4.89718e-15)
(-5.38116e-15 -0 -5.96679e-15)
(-5.51833e-15 -0 -7.32962e-15)
(-5.59628e-15 -0 -9.0565e-15)
(-5.60456e-15 -0 -1.1029e-14)
(-5.56325e-15 -0 -1.36032e-14)
(-5.48894e-15 -0 -1.66131e-14)
(-5.40731e-15 -0 -2.01153e-14)
(-6.81532e-15 -0 -2.32225e-14)
(-2.13507e-13 -0 -2.01054e-14)
(-4.08346e-17 -1.43244e-33 -2.9996e-16)
(1.78609e-18 1.04883e-33 -3.33371e-17)
(-2.04307e-18 -0 -1.47393e-17)
(-6.19675e-19 -9.89485e-36 -4.62608e-18)
(-6.79715e-19 -0 -3.81423e-18)
(-2.66295e-19 -0 -1.68953e-18)
(-2.12073e-19 -0 -1.18303e-18)
(-2.15434e-19 -0 -1.1479e-18)
(-2.12549e-19 -0 -1.13061e-18)
(-2.10295e-19 -0 -1.11766e-18)
(-2.08822e-19 -0 -1.10895e-18)
(-2.07828e-19 -0 -1.10326e-18)
(-2.07167e-19 -0 -1.09929e-18)
(-2.06802e-19 -0 -1.09678e-18)
(-2.06627e-19 -0 -1.0955e-18)
(-2.0684e-19 2.2409e-36 -1.09577e-18)
(-2.07816e-19 -0 -1.099e-18)
(-2.101e-19 2.2665e-36 -1.10758e-18)
(-2.15039e-19 -0 -1.12528e-18)
(-2.41876e-19 -0 -1.1747e-18)
(-4.47038e-19 -3.96587e-36 -1.8914e-18)
(-1.09166e-18 -9.47613e-36 -4.43297e-18)
(-2.41238e-18 -2.08258e-35 -9.66808e-18)
(-6.57596e-18 -0 -2.10104e-17)
(-2.93421e-17 -2.20677e-33 -8.13497e-17)
(-1.54826e-16 3.43014e-33 -3.64919e-16)
(-4.45976e-15 -1.01369e-31 1.11101e-15)
(-1.39664e-15 -6.78344e-32 -3.97942e-16)
(-9.52024e-16 -8.98625e-32 -7.90829e-16)
(-1.09373e-15 -1.11074e-31 -1.00636e-15)
(-1.32238e-15 -2.11085e-33 -1.22273e-15)
(-1.63476e-15 -1.72573e-31 -1.48223e-15)
(-2.01985e-15 -0 -1.79308e-15)
(-2.47541e-15 -0 -2.19295e-15)
(-2.97723e-15 -0 -2.66922e-15)
(-3.50742e-15 3.72646e-33 -3.25748e-15)
(-4.05025e-15 -0 -3.98641e-15)
(-4.5856e-15 -4.20353e-33 -4.87212e-15)
(-5.07947e-15 -5.93105e-31 -5.9017e-15)
(-5.52599e-15 4.35136e-33 -7.16915e-15)
(-5.91246e-15 -0 -8.6726e-15)
(-6.25944e-15 -0 -1.05084e-14)
(-6.55858e-15 -0 -1.26191e-14)
(-6.81729e-15 -0 -1.51441e-14)
(-7.08687e-15 -0 -1.83109e-14)
(-7.28215e-15 -0 -2.18718e-14)
(-7.49335e-15 -0 -2.61552e-14)
(-7.82623e-15 -0 -3.16595e-14)
(-9.39692e-15 -0 -3.74552e-14)
(-2.11791e-13 -0 -3.59876e-14)
(-4.8517e-17 5.0191e-33 -7.54685e-16)
(5.44429e-19 -0 -9.12864e-17)
(-5.66547e-18 -0 -4.58774e-17)
(-2.60273e-18 -4.18069e-35 -1.93456e-17)
(-2.67273e-18 -0 -1.51473e-17)
(-1.09366e-18 -0 -7.02827e-18)
(-9.47764e-19 -0 -5.10931e-18)
(-9.74509e-19 -0 -4.96645e-18)
(-9.63556e-19 -0 -4.8989e-18)
(-9.54617e-19 -0 -4.849e-18)
(-9.48658e-19 -0 -4.81483e-18)
(-9.44655e-19 -0 -4.79209e-18)
(-9.41845e-19 -0 -4.77607e-18)
(-9.39882e-19 -0 -4.76449e-18)
(-9.3865e-19 -0 -4.75676e-18)
(-9.3869e-19 1.01727e-35 -4.75428e-18)
(-9.41222e-19 -0 -4.76187e-18)
(-9.48416e-19 9.96813e-34 -4.78904e-18)
(-9.65703e-19 -0 -4.85135e-18)
(-1.07734e-18 -0 -5.0106e-18)
(-1.86012e-18 -1.99154e-33 -7.49342e-18)
(-4.31896e-18 -1.02691e-33 -1.71028e-17)
(-8.26104e-18 -6.77917e-35 -3.13331e-17)
(-2.28048e-17 1.0325e-33 -7.32791e-17)
(-8.0456e-17 1.9678e-33 -2.3102e-16)
(-4.02468e-16 2.06871e-33 -9.54924e-16)
(-2.27867e-15 -3.39085e-32 4.06161e-16)
(-1.63223e-15 7.12082e-32 -5.34695e-16)
(-1.04208e-15 -9.2323e-32 -1.03959e-15)
(-1.17623e-15 1.1834e-31 -1.31819e-15)
(-1.42154e-15 -2.94943e-33 -1.62045e-15)
(-1.75059e-15 1.76819e-31 -1.96666e-15)
(-2.1618e-15 -0 -2.39649e-15)
(-2.64349e-15 -2.65755e-31 -2.92338e-15)
(-3.17774e-15 -0 -3.57697e-15)
(-3.7559e-15 3.9218e-31 -4.38901e-15)
(-4.35447e-15 -4.56381e-31 -5.396e-15)
(-4.94302e-15 -7.78375e-33 -6.5921e-15)
(-5.51207e-15 6.16538e-31 -8.02302e-15)
(-6.04856e-15 6.94294e-31 -9.72472e-15)
(-6.54139e-15 -0 -1.173e-14)
(-7.01146e-15 -0 -1.4149e-14)
(-7.45392e-15 -0 -1.69819e-14)
(-7.89608e-15 -0 -2.02804e-14)
(-8.36619e-15 -0 -2.43034e-14)
(-8.76301e-15 -0 -2.88054e-14)
(-9.39399e-15 -0 -3.46485e-14)
(-1.04042e-14 -0 -4.31209e-14)
(-1.1794e-14 -0 -5.06803e-14)
(-2.14004e-13 -0 -5.03887e-14)
(3.68108e-17 -5.28708e-33 -6.40365e-16)
(-1.43414e-17 -1.50693e-33 -2.29152e-16)
(-9.81695e-18 -0 -9.59082e-17)
(-9.17509e-18 -1.38591e-34 -6.39914e-17)
(-7.24676e-18 -0 -4.40366e-17)
(-3.73409e-18 -0 -2.45598e-17)
(-3.77473e-18 -0 -2.01371e-17)
(-3.84481e-18 -0 -1.94149e-17)
(-3.76958e-18 -0 -1.89843e-17)
(-3.71368e-18 -0 -1.86846e-17)
(-3.67687e-18 -0 -1.84841e-17)
(-3.65255e-18 -0 -1.83517e-17)
(-3.63516e-18 -0 -1.82579e-17)
(-3.62205e-18 -0 -1.81871e-17)
(-3.61263e-18 -1.00863e-33 -1.81345e-17)
(-3.6091e-18 1.04779e-33 -1.81076e-17)
(-3.61788e-18 -0 -1.81334e-17)
(-3.65197e-18 -1.00865e-33 -1.82708e-17)
(-3.73979e-18 -0 -1.86299e-17)
(-4.17638e-18 -0 -1.93992e-17)
(-6.35099e-18 5.3557e-35 -2.47666e-17)
(-1.29774e-17 -0 -5.01285e-17)
(-2.28083e-17 -1.71373e-34 -7.9121e-17)
(-5.67834e-17 -3.90913e-34 -1.80417e-16)
(-1.4957e-16 2.6956e-33 -4.17169e-16)
(-3.72461e-16 1.46365e-32 -6.42186e-16)
(-1.74784e-15 3.26488e-32 2.49691e-17)
(-1.77886e-15 -7.3008e-32 -6.44524e-16)
(-1.12621e-15 2.36035e-33 -1.21677e-15)
(-1.24828e-15 -0 -1.55064e-15)
(-1.50203e-15 -1.53805e-31 -1.89693e-15)
(-1.84706e-15 -4.1542e-33 -2.31053e-15)
(-2.27715e-15 2.26661e-31 -2.82613e-15)
(-2.77961e-15 2.82194e-31 -3.44786e-15)
(-3.35128e-15 -3.34516e-31 -4.2585e-15)
(-3.95893e-15 -0 -5.22111e-15)
(-4.59061e-15 4.80923e-31 -6.39538e-15)
(-5.2346e-15 -5.58455e-31 -7.84699e-15)
(-5.87014e-15 -0 -9.59453e-15)
(-6.46936e-15 -0 -1.16271e-14)
(-7.05455e-15 -0 -1.40797e-14)
(-7.61906e-15 -0 -1.69102e-14)
(-8.20085e-15 -0 -2.03434e-14)
(-8.79577e-15 -0 -2.43458e-14)
(-9.38515e-15 -0 -2.88979e-14)
(-1.00464e-14 -0 -3.43324e-14)
(-1.13276e-14 -0 -4.25065e-14)
(-1.27292e-14 -0 -5.30235e-14)
(-1.36551e-14 -0 -6.11363e-14)
(-2.19022e-13 -0 -6.05654e-14)
(2.35218e-17 8.87146e-33 -6.715e-16)
(-2.94823e-17 1.06521e-33 -4.91649e-16)
(-1.89593e-17 -0 -1.84821e-16)
(-2.11315e-17 -3.02044e-34 -1.39418e-16)
(-1.20342e-17 -0 -8.75795e-17)
(-1.1319e-17 -0 -7.12079e-17)
(-1.22751e-17 -0 -6.4701e-17)
(-1.20019e-17 -0 -6.08102e-17)
(-1.15477e-17 -0 -5.82728e-17)
(-1.12417e-17 -0 -5.6598e-17)
(-1.10464e-17 -0 -5.55165e-17)
(-1.092e-17 -0 -5.48175e-17)
(-1.083e-17 -0 -5.43287e-17)
(-1.07618e-17 -0 -5.39615e-17)
(-1.07125e-17 1.16249e-34 -5.3687e-17)
(-1.06924e-17 -1.07992e-33 -5.35374e-17)
(-1.07363e-17 -0 -5.36542e-17)
(-1.09167e-17 1.19757e-33 -5.43481e-17)
(-1.13828e-17 -0 -5.62785e-17)
(-1.28611e-17 -0 -6.04861e-17)
(-1.73215e-17 1.47814e-34 -6.82497e-17)
(-2.66557e-17 -0 -9.59273e-17)
(-4.76674e-17 -3.68105e-34 -1.69902e-16)
(-8.96805e-17 -6.01699e-34 -2.77754e-16)
(-1.59803e-16 -8.43839e-34 -3.89797e-16)
(-3.86235e-16 -1.85087e-32 -5.76754e-16)
(-1.49384e-15 2.7677e-34 -1.47965e-16)
(-1.89252e-15 1.40013e-33 -7.27546e-16)
(-1.20363e-15 2.61514e-33 -1.34214e-15)
(-1.31197e-15 -1.28021e-31 -1.72351e-15)
(-1.57291e-15 -1.57872e-31 -2.11108e-15)
(-1.92773e-15 -1.98435e-31 -2.55687e-15)
(-2.37298e-15 -5.47906e-33 -3.12431e-15)
(-2.89965e-15 2.88641e-31 -3.84026e-15)
(-3.48875e-15 7.0475e-31 -4.7218e-15)
(-4.12648e-15 -0 -5.82904e-15)
(-4.79397e-15 -0 -7.14914e-15)
(-5.47716e-15 -0 -8.77622e-15)
(-6.14474e-15 -0 -1.06907e-14)
(-6.81131e-15 -7.27567e-31 -1.30173e-14)
(-7.48052e-15 -0 -1.5842e-14)
(-8.13667e-15 -0 -1.90993e-14)
(-8.80929e-15 -0 -2.29044e-14)
(-9.51747e-15 -0 -2.74394e-14)
(-1.0211e-14 -0 -3.23942e-14)
(-1.12495e-14 -0 -3.89436e-14)
(-1.30523e-14 -0 -4.89026e-14)
(-1.41334e-14 -0 -5.86042e-14)
(-1.37533e-14 -0 -6.39834e-14)
(-2.2245e-13 -0 -6.00802e-14)
(1.9829e-17 -0 -7.04572e-16)
(-1.27957e-17 1.09366e-33 -5.05133e-16)
(-3.96128e-17 -0 -3.65735e-16)
(-2.63281e-17 -4.56902e-34 -2.10916e-16)
(-2.42283e-17 -0 -1.56712e-16)
(-2.79529e-17 -0 -1.53965e-16)
(-2.6068e-17 -0 -1.38021e-16)
(-2.38968e-17 -0 -1.24318e-16)
(-2.25846e-17 -0 -1.16078e-16)
(-2.17861e-17 -0 -1.1101e-16)
(-2.13044e-17 -0 -1.07896e-16)
(-2.09966e-17 -0 -1.05932e-16)
(-2.07734e-17 -0 -1.04579e-16)
(-2.0604e-17 -0 -1.0358e-16)
(-2.0485e-17 2.22737e-34 -1.02831e-16)
(-2.04481e-17 1.60035e-33 -1.02371e-16)
(-2.06128e-17 -0 -1.02605e-16)
(-2.12126e-17 -0 -1.04331e-16)
(-2.27794e-17 -0 -1.09634e-16)
(-2.62656e-17 -1.42485e-33 -1.2275e-16)
(-3.22607e-17 1.77953e-33 -1.40682e-16)
(-4.21659e-17 -0 -1.504e-16)
(-8.28439e-17 -6.17057e-34 -2.84843e-16)
(-1.06375e-16 -7.14168e-34 -3.29813e-16)
(-1.82059e-16 -9.37012e-34 -4.33127e-16)
(-3.97851e-16 1.17837e-32 -5.58287e-16)
(-1.3541e-15 3.51723e-32 -2.69125e-16)
(-1.98418e-15 8.11633e-32 -7.95205e-16)
(-1.27927e-15 2.80927e-33 -1.44023e-15)
(-1.37267e-15 2.73531e-31 -1.86173e-15)
(-1.63665e-15 1.70449e-31 -2.27692e-15)
(-2.00092e-15 -2.03434e-31 -2.76125e-15)
(-2.46077e-15 -2.54309e-31 -3.36849e-15)
(-3.00245e-15 -7.01855e-33 -4.13595e-15)
(-3.6107e-15 -8.25085e-33 -5.08089e-15)
(-4.27025e-15 -0 -6.25652e-15)
(-4.96629e-15 -5.08959e-31 -7.7271e-15)
(-5.67311e-15 5.89164e-31 -9.45215e-15)
(-6.38967e-15 -0 -1.15689e-14)
(-7.11223e-15 1.79185e-32 -1.41073e-14)
(-7.82942e-15 8.3096e-31 -1.71277e-14)
(-8.57353e-15 -0 -2.08057e-14)
(-9.32348e-15 -0 -2.49326e-14)
(-1.00782e-14 -0 -2.96731e-14)
(-1.08805e-14 -0 -3.49652e-14)
(-1.22634e-14 -0 -4.23877e-14)
(-1.41205e-14 -0 -5.28791e-14)
(-1.42317e-14 -0 -6.02923e-14)
(-1.18511e-14 -0 -5.90728e-14)
(-2.21626e-13 -0 -5.21294e-14)
(1.71592e-17 -0 -7.61166e-16)
(-3.08311e-18 1.16327e-33 -5.3771e-16)
(-3.85836e-17 -0 -4.21962e-16)
(-4.16576e-17 -6.84117e-34 -3.15861e-16)
(-4.56242e-17 -0 -2.82832e-16)
(-4.00004e-17 -0 -2.33433e-16)
(-3.51814e-17 -0 -1.97149e-16)
(-3.28528e-17 -0 -1.76977e-16)
(-3.17001e-17 -0 -1.66135e-16)
(-3.10516e-17 -0 -1.59991e-16)
(-3.06662e-17 -0 -1.56326e-16)
(-3.04051e-17 -0 -1.5404e-16)
(-3.01971e-17 -0 -1.52461e-16)
(-3.0024e-17 -0 -1.51258e-16)
(-2.98861e-17 3.25501e-34 -1.50274e-16)
(-2.98216e-17 -0 -1.49416e-16)
(-3.00061e-17 -0 -1.49144e-16)
(-3.07793e-17 -1.74926e-33 -1.50246e-16)
(-3.30222e-17 -0 -1.5518e-16)
(-3.84069e-17 2.24774e-33 -1.70634e-16)
(-4.92739e-17 -0 -2.07198e-16)
(-6.81368e-17 -2.36085e-33 -2.54157e-16)
(-9.83321e-17 -7.02952e-34 -3.24646e-16)
(-1.26723e-16 -8.48497e-34 -3.92041e-16)
(-2.036e-16 -1.04867e-33 -4.85094e-16)
(-4.09686e-16 1.25666e-32 -5.71201e-16)
(-1.2714e-15 -3.61575e-32 -3.70927e-16)
(-2.06205e-15 -0 -8.60066e-16)
(-1.35394e-15 -1.10748e-31 -1.52935e-15)
(-1.42916e-15 -4.30955e-31 -1.97358e-15)
(-1.69463e-15 -0 -2.40824e-15)
(-2.07008e-15 4.32815e-31 -2.92575e-15)
(-2.54023e-15 -0 -3.56202e-15)
(-3.09625e-15 -7.42033e-33 -4.36771e-15)
(-3.7178e-15 -8.72493e-33 -5.36233e-15)
(-4.39448e-15 4.51214e-31 -6.59619e-15)
(-5.12024e-15 5.41537e-31 -8.15355e-15)
(-5.85641e-15 -6.25857e-31 -1.00173e-14)
(-6.61004e-15 -0 -1.22759e-14)
(-7.36816e-15 7.98399e-31 -1.49837e-14)
(-8.14459e-15 -8.81476e-31 -1.82032e-14)
(-8.93972e-15 9.3345e-31 -2.20484e-14)
(-9.7082e-15 -0 -2.63607e-14)
(-1.04187e-14 -0 -3.09173e-14)
(-1.13856e-14 -0 -3.66998e-14)
(-1.29951e-14 -0 -4.45819e-14)
(-1.472e-14 -0 -5.50952e-14)
(-1.34347e-14 -0 -5.94471e-14)
(-9.46118e-15 -0 -5.36748e-14)
(-2.18526e-13 -0 -4.61512e-14)
(1.66785e-17 -0 -8.21878e-16)
(3.85607e-18 1.25945e-33 -5.82679e-16)
(-3.78587e-17 -0 -4.65181e-16)
(-5.15103e-17 -8.51674e-34 -3.93386e-16)
(-5.39177e-17 -0 -3.4708e-16)
(-4.94536e-17 -0 -2.98554e-16)
(-4.79925e-17 -0 -2.7127e-16)
(-4.7889e-17 -0 -2.57528e-16)
(-4.78808e-17 -0 -2.5001e-16)
(-4.7859e-17 -0 -2.45787e-16)
(-4.77721e-17 -0 -2.43024e-16)
(-4.76876e-17 -0 -2.41278e-16)
(-4.75628e-17 -0 -2.39963e-16)
(-4.74068e-17 -0 -2.38804e-16)
(-4.72025e-17 5.14504e-34 -2.37542e-16)
(-4.70254e-17 -0 -2.36162e-16)
(-4.69952e-17 -0 -2.34664e-16)
(-4.74957e-17 2.89981e-33 -2.338e-16)
(-4.9322e-17 -0 -2.3458e-16)
(-5.41604e-17 -2.55859e-33 -2.41424e-16)
(-6.48569e-17 -0 -2.66546e-16)
(-8.73004e-17 4.02516e-33 -3.22902e-16)
(-1.12687e-16 -5.25341e-33 -3.68936e-16)
(-1.45898e-16 -6.7719e-33 -4.45769e-16)
(-2.23704e-16 -1.15774e-33 -5.35993e-16)
(-4.23598e-16 -1.30356e-33 -6.06117e-16)
(-1.22042e-15 3.8969e-32 -4.63995e-16)
(-2.12608e-15 -0 -9.16028e-16)
(-1.42772e-15 2.46292e-31 -1.60721e-15)
(-1.48459e-15 1.58119e-31 -2.07627e-15)
(-1.7514e-15 -1.84154e-31 -2.52878e-15)
(-2.1303e-15 -5.55054e-33 -3.05138e-15)
(-2.61026e-15 -2.72911e-31 -3.70732e-15)
(-3.17645e-15 -7.68233e-33 -4.53697e-15)
(-3.81168e-15 -9.01862e-33 -5.56243e-15)
(-4.5183e-15 -1.07059e-32 -6.89785e-15)
(-5.24726e-15 5.50739e-31 -8.4579e-15)
(-6.01546e-15 6.35376e-31 -1.04394e-14)
(-6.79605e-15 -7.21601e-31 -1.27997e-14)
(-7.60741e-15 -0 -1.56962e-14)
(-8.42944e-15 8.88479e-31 -1.91349e-14)
(-9.21605e-15 -9.91648e-31 -2.29772e-14)
(-9.93603e-15 1.03192e-30 -2.71483e-14)
(-1.05965e-14 -0 -3.13801e-14)
(-1.171e-14 -0 -3.74099e-14)
(-1.35391e-14 -0 -4.59464e-14)
(-1.4791e-14 -0 -5.59394e-14)
(-1.15688e-14 -0 -5.48486e-14)
(-7.20865e-15 -0 -4.8296e-14)
(-2.15101e-13 -0 -4.26461e-14)
(1.73675e-17 -0 -8.79777e-16)
(9.51551e-18 1.37915e-33 -6.38643e-16)
(-3.81717e-17 -0 -5.0794e-16)
(-5.73853e-17 -9.7563e-34 -4.50902e-16)
(-5.93339e-17 4.63699e-33 -3.96194e-16)
(-5.83611e-17 -0 -3.57132e-16)
(-5.99375e-17 -0 -3.38295e-16)
(-6.1263e-17 -0 -3.28392e-16)
(-6.18789e-17 -0 -3.22493e-16)
(-6.20448e-17 -0 -3.18442e-16)
(-6.20555e-17 -0 -3.15623e-16)
(-6.20454e-17 -0 -3.13928e-16)
(-6.19085e-17 -0 -3.12447e-16)
(-6.17283e-17 -0 -3.1121e-16)
(-6.1488e-17 6.70793e-34 -3.09788e-16)
(-6.12842e-17 -0 -3.08321e-16)
(-6.12206e-17 -0 -3.0657e-16)
(-6.17645e-17 -3.30056e-33 -3.05508e-16)
(-6.36332e-17 -0 -3.05464e-16)
(-6.84015e-17 6.67555e-34 -3.0833e-16)
(-7.88113e-17 -0 -3.22094e-16)
(-1.01629e-16 -0 -3.70557e-16)
(-1.26758e-16 -0 -4.13443e-16)
(-1.63894e-16 -0 -4.93253e-16)
(-2.42252e-16 -1.25613e-33 -5.82095e-16)
(-4.40991e-16 -1.40845e-33 -6.55625e-16)
(-1.18862e-15 4.02055e-32 -5.51699e-16)
(-2.1789e-15 -0 -9.71861e-16)
(-1.49888e-15 -1.26584e-31 -1.67018e-15)
(-1.53909e-15 1.62495e-31 -2.16835e-15)
(-1.80182e-15 4.89512e-33 -2.62378e-15)
(-2.18837e-15 -2.41436e-31 -3.16792e-15)
(-2.6799e-15 5.78454e-31 -3.85251e-15)
(-3.25404e-15 -3.53047e-31 -4.68838e-15)
(-3.90699e-15 -9.3104e-33 -5.76413e-15)
(-4.6166e-15 -1.09211e-32 -7.08714e-15)
(-5.37287e-15 -1.28718e-32 -8.75452e-15)
(-6.15965e-15 -1.50778e-32 -1.0766e-14)
(-6.97569e-15 7.65936e-31 -1.32558e-14)
(-7.81536e-15 -8.35549e-31 -1.62498e-14)
(-8.63604e-15 -2.42468e-32 -1.9682e-14)
(-9.39987e-15 9.96206e-31 -2.35326e-14)
(-9.97182e-15 -3.0127e-32 -2.7218e-14)
(-1.06182e-14 -0 -3.13004e-14)
(-1.18862e-14 -0 -3.73717e-14)
(-1.38395e-14 -0 -4.62754e-14)
(-1.39583e-14 -0 -5.38346e-14)
(-9.41704e-15 -0 -4.96853e-14)
(-5.36903e-15 -0 -4.36967e-14)
(-2.1102e-13 -0 -4.01071e-14)
(1.8315e-17 -0 -9.32256e-16)
(1.48527e-17 1.50964e-33 -6.99763e-16)
(-3.9548e-17 -0 -5.56322e-16)
(-6.14888e-17 -1.08116e-33 -5.00027e-16)
(-6.42228e-17 -6.99979e-33 -4.41571e-16)
(-6.65688e-17 -0 -4.09579e-16)
(-6.99474e-17 -0 -3.94431e-16)
(-7.17547e-17 -0 -3.84721e-16)
(-7.24932e-17 -0 -3.78273e-16)
(-7.26378e-17 -0 -3.73412e-16)
(-7.27219e-17 -0 -3.70367e-16)
(-7.26868e-17 -0 -3.68248e-16)
(-7.24839e-17 -0 -3.66299e-16)
(-7.23297e-17 -0 -3.65018e-16)
(-7.2087e-17 7.87138e-34 -3.63686e-16)
(-7.18191e-17 -0 -3.61995e-16)
(-7.18425e-17 -0 -3.6049e-16)
(-7.24796e-17 5.19609e-33 -3.59403e-16)
(-7.47021e-17 -0 -3.60147e-16)
(-7.9981e-17 5.39751e-33 -3.6332e-16)
(-9.10213e-17 -4.98812e-33 -3.72261e-16)
(-1.13888e-16 -0 -4.10699e-16)
(-1.41368e-16 7.26767e-33 -4.5948e-16)
(-1.80751e-16 -9.19277e-33 -5.36843e-16)
(-2.59638e-16 -1.345e-33 -6.2394e-16)
(-4.60731e-16 -1.52619e-33 -7.11229e-16)
(-1.17024e-15 -1.32777e-33 -6.39003e-16)
(-2.22353e-15 9.58202e-32 -1.03142e-15)
(-1.56967e-15 2.70124e-31 -1.73601e-15)
(-1.59256e-15 -0 -2.25427e-15)
(-1.85286e-15 5.05878e-33 -2.72055e-15)
(-2.24873e-15 -0 -3.28691e-15)
(-2.74415e-15 -3.06304e-31 -3.96978e-15)
(-3.329e-15 3.60575e-31 -4.83875e-15)
(-3.9945e-15 -9.54174e-33 -5.93968e-15)
(-4.71246e-15 -1.11042e-32 -7.26269e-15)
(-5.48758e-15 -1.30749e-32 -8.97088e-15)
(-6.29337e-15 -6.9987e-31 -1.10666e-14)
(-7.12359e-15 -0 -1.35617e-14)
(-7.96832e-15 8.86029e-31 -1.65867e-14)
(-8.76247e-15 -9.7421e-31 -1.99532e-14)
(-9.41354e-15 -2.66768e-32 -2.34685e-14)
(-9.84199e-15 -2.78124e-32 -2.66497e-14)
(-1.05521e-14 1.15417e-30 -3.0701e-14)
(-1.19992e-14 -0 -3.70713e-14)
(-1.38116e-14 -0 -4.58861e-14)
(-1.2788e-14 -0 -5.08655e-14)
(-7.62941e-15 -0 -4.56065e-14)
(-4.14889e-15 -0 -4.09892e-14)
(-2.06849e-13 -0 -3.76042e-14)
(1.86529e-17 -0 -9.80763e-16)
(2.00764e-17 1.64319e-33 -7.62479e-16)
(-4.14605e-17 -0 -6.10273e-16)
(-6.50268e-17 -1.18099e-33 -5.46637e-16)
(-6.98232e-17 7.63225e-33 -4.89083e-16)
(-7.48122e-17 -0 -4.6131e-16)
(-7.87273e-17 -0 -4.44855e-16)
(-8.05284e-17 -0 -4.33184e-16)
(-8.12011e-17 -0 -4.25185e-16)
(-8.13652e-17 -0 -4.19356e-16)
(-8.15287e-17 -0 -4.15978e-16)
(-8.14072e-17 -0 -4.13244e-16)
(-8.12846e-17 -0 -4.11373e-16)
(-8.11045e-17 -0 -4.09901e-16)
(-8.07388e-17 8.82539e-34 -4.08e-16)
(-8.05697e-17 -0 -4.06681e-16)
(-8.06284e-17 -0 -4.05273e-16)
(-8.14577e-17 -0 -4.04489e-16)
(-8.40487e-17 -0 -4.05805e-16)
(-9.00575e-17 -5.92787e-33 -4.10821e-16)
(-1.02456e-16 7.24693e-33 -4.2045e-16)
(-1.25864e-16 -0 -4.5116e-16)
(-1.56581e-16 -1.00375e-32 -5.07176e-16)
(-1.96782e-16 1.23969e-32 -5.79345e-16)
(-2.76527e-16 -1.42895e-33 -6.63656e-16)
(-4.82759e-16 -1.64902e-33 -7.69372e-16)
(-1.16307e-15 -1.51431e-33 -7.27219e-16)
(-2.26091e-15 -2.13824e-33 -1.09545e-15)
(-1.64084e-15 -1.43978e-31 -1.80599e-15)
(-1.64531e-15 1.75692e-31 -2.33449e-15)
(-1.90593e-15 -2.08805e-31 -2.82873e-15)
(-2.30142e-15 -0 -3.38135e-15)
(-2.80205e-15 -0 -4.06882e-15)
(-3.39873e-15 -7.6134e-31 -4.94675e-15)
(-4.06991e-15 -4.58944e-31 -6.05993e-15)
(-4.80567e-15 -1.13228e-32 -7.45637e-15)
(-5.58348e-15 -1.31309e-32 -9.11852e-15)
(-6.40471e-15 7.10072e-31 -1.12393e-14)
(-7.24418e-15 -8.03028e-31 -1.37918e-14)
(-8.07067e-15 -0 -1.67121e-14)
(-8.80689e-15 9.81615e-31 -1.99539e-14)
(-9.26851e-15 -1.08549e-30 -2.28372e-14)
(-9.58699e-15 -2.44988e-32 -2.55801e-14)
(-1.03839e-14 -2.65075e-32 -2.96253e-14)
(-1.2008e-14 -0 -3.62337e-14)
(-1.36196e-14 -0 -4.49186e-14)
(-1.15359e-14 -0 -4.80967e-14)
(-6.09517e-15 -0 -4.23666e-14)
(-3.08338e-15 -0 -3.86032e-14)
(-2.02053e-13 -0 -3.62474e-14)
(1.74073e-17 -0 -1.02968e-15)
(2.4579e-17 1.78082e-33 -8.27289e-16)
(-4.37283e-17 -0 -6.69767e-16)
(-6.88745e-17 -1.28501e-33 -5.95299e-16)
(-7.63827e-17 -1.05766e-32 -5.40318e-16)
(-8.30314e-17 8.53937e-33 -5.13249e-16)
(-8.69061e-17 -0 -4.93451e-16)
(-8.86718e-17 -0 -4.79344e-16)
(-8.93281e-17 -0 -4.69603e-16)
(-8.96922e-17 -0 -4.63707e-16)
(-8.97693e-17 -0 -4.59251e-16)
(-8.9749e-17 -0 -4.56338e-16)
(-8.97344e-17 -0 -4.54801e-16)
(-8.94359e-17 -0 -4.5286e-16)
(-8.91449e-17 9.75186e-34 -4.51126e-16)
(-8.89588e-17 -0 -4.49631e-16)
(-8.90659e-17 -0 -4.48221e-16)
(-9.00711e-17 -0 -4.47732e-16)
(-9.29933e-17 -0 -4.49172e-16)
(-9.99072e-17 8.40446e-33 -4.56109e-16)
(-1.13932e-16 -0 -4.69086e-16)
(-1.38459e-16 -0 -4.95703e-16)
(-1.721e-16 -0 -5.56301e-16)
(-2.12267e-16 -0 -6.22525e-16)
(-2.93298e-16 -1.88704e-32 -7.03368e-16)
(-5.0566e-16 -5.18798e-32 -8.26464e-16)
(-1.16314e-15 -5.03381e-32 -8.10016e-16)
(-2.29149e-15 -2.25506e-33 -1.15503e-15)
(-1.70925e-15 1.47858e-31 -1.87165e-15)
(-1.697e-15 -1.8936e-31 -2.41007e-15)
(-1.9533e-15 4.60398e-31 -2.90796e-15)
(-2.34854e-15 -2.71633e-31 -3.45861e-15)
(-2.85919e-15 3.27371e-31 -4.16484e-15)
(-3.45521e-15 7.93764e-31 -5.02331e-15)
(-4.13803e-15 -0 -6.13794e-15)
(-4.88806e-15 -1.13698e-32 -7.57244e-15)
(-5.6721e-15 -1.32044e-32 -9.27569e-15)
(-6.49493e-15 -7.50898e-31 -1.13493e-14)
(-7.33277e-15 1.77288e-32 -1.38748e-14)
(-8.12142e-15 -0 -1.67276e-14)
(-8.73077e-15 -2.18406e-32 -1.95881e-14)
(-8.97961e-15 -0 -2.17937e-14)
(-9.23417e-15 -2.04566e-32 -2.40964e-14)
(-1.02223e-14 -2.29896e-32 -2.84594e-14)
(-1.19259e-14 1.26083e-30 -3.49939e-14)
(-1.3277e-14 -0 -4.37534e-14)
(-9.86927e-15 -0 -4.32135e-14)
(-4.81548e-15 -0 -3.9657e-14)
(-2.49142e-15 -0 -3.74211e-14)
(-1.98327e-13 -0 -3.70529e-14)
(1.44419e-17 -0 -1.08041e-15)
(2.84186e-17 1.92069e-33 -8.9336e-16)
(-4.58224e-17 -0 -7.31763e-16)
(-7.31723e-17 -1.39521e-33 -6.46951e-16)
(-8.36153e-17 -0 -5.94852e-16)
(-9.10792e-17 -1.22066e-33 -5.65396e-16)
(-9.49143e-17 -0 -5.42389e-16)
(-9.67996e-17 -0 -5.26431e-16)
(-9.76057e-17 -0 -5.15223e-16)
(-9.81679e-17 -0 -5.08933e-16)
(-9.83893e-17 -0 -5.04459e-16)
(-9.84792e-17 -0 -5.01517e-16)
(-9.84132e-17 -0 -4.99483e-16)
(-9.82624e-17 -0 -4.98153e-16)
(-9.79482e-17 1.07229e-33 -4.96399e-16)
(-9.77716e-17 -0 -4.94906e-16)
(-9.78966e-17 -0 -4.93378e-16)
(-9.88745e-17 -0 -4.91984e-16)
(-1.02239e-16 -0 -4.93728e-16)
(-1.09939e-16 -0 -5.01814e-16)
(-1.2532e-16 -0 -5.17379e-16)
(-1.51649e-16 -1.07519e-32 -5.43522e-16)
(-1.87598e-16 1.28649e-32 -6.0612e-16)
(-2.27501e-16 -0 -6.67687e-16)
(-3.10617e-16 -1.99844e-32 -7.4582e-16)
(-5.29317e-16 3.01121e-32 -8.81656e-16)
(-1.17053e-15 5.20811e-32 -8.98001e-16)
(-2.31831e-15 -2.39079e-33 -1.22361e-15)
(-1.77797e-15 -1.59241e-31 -1.94038e-15)
(-1.74989e-15 -0 -2.49798e-15)
(-1.99767e-15 -2.35782e-31 -2.98577e-15)
(-2.3982e-15 2.90589e-31 -3.54853e-15)
(-2.90858e-15 -7.24544e-33 -4.23642e-15)
(-3.51417e-15 -8.26879e-31 -5.11244e-15)
(-4.20356e-15 -4.86524e-31 -6.22719e-15)
(-4.94627e-15 -5.83769e-31 -7.59361e-15)
(-5.7474e-15 -1.31118e-32 -9.35534e-15)
(-6.56279e-15 7.61734e-31 -1.13986e-14)
(-7.3779e-15 1.73556e-30 -1.38319e-14)
(-8.1021e-15 -0 -1.6477e-14)
(-8.51028e-15 -1.93809e-32 -1.87518e-14)
(-8.59939e-15 -0 -2.04659e-14)
(-8.92093e-15 -1.6874e-32 -2.27601e-14)
(-1.00674e-14 -1.26552e-30 -2.72991e-14)
(-1.17967e-14 -1.31521e-30 -3.35444e-14)
(-1.27013e-14 -0 -4.21709e-14)
(-8.59075e-15 -0 -4.05284e-14)
(-4.00496e-15 -0 -3.74021e-14)
(-2.02274e-15 -0 -3.59787e-14)
(-1.94243e-13 -0 -3.54942e-14)
(1.028e-17 -0 -1.13182e-15)
(3.19356e-17 2.05773e-33 -9.5836e-16)
(-4.76147e-17 -0 -7.94921e-16)
(-7.80126e-17 -1.51146e-33 -7.01539e-16)
(-9.1085e-17 -0 -6.50631e-16)
(-9.90386e-17 -1.3337e-33 -6.18279e-16)
(-1.03031e-16 -0 -5.92599e-16)
(-1.05262e-16 -0 -5.75417e-16)
(-1.06436e-16 -0 -5.64026e-16)
(-1.0707e-16 -0 -5.56485e-16)
(-1.07589e-16 -0 -5.52743e-16)
(-1.07684e-16 -0 -5.49357e-16)
(-1.07802e-16 -0 -5.47689e-16)
(-1.07517e-16 -0 -5.45732e-16)
(-1.0733e-16 1.17537e-33 -5.44531e-16)
(-1.07127e-16 -0 -5.42841e-16)
(-1.07166e-16 -0 -5.41149e-16)
(-1.08229e-16 -0 -5.39524e-16)
(-1.11891e-16 -0 -5.40408e-16)
(-1.20282e-16 -1.09346e-32 -5.48388e-16)
(-1.37049e-16 -1.15086e-32 -5.66647e-16)
(-1.65494e-16 1.40532e-32 -5.94546e-16)
(-2.02953e-16 -1.41373e-33 -6.56344e-16)
(-2.43201e-16 -1.80793e-32 -7.17106e-16)
(-3.28859e-16 2.4505e-32 -7.93832e-16)
(-5.52555e-16 -0 -9.33619e-16)
(-1.18504e-15 -2.05336e-33 -9.84263e-16)
(-2.34123e-15 -2.5265e-33 -1.29263e-15)
(-1.84307e-15 1.63467e-31 -2.00389e-15)
(-1.7993e-15 -0 -2.56704e-15)
(-2.04369e-15 4.99995e-31 -3.07406e-15)
(-2.44462e-15 -0 -3.63722e-15)
(-2.95857e-15 -3.6398e-31 -4.32149e-15)
(-3.56879e-15 4.34517e-31 -5.19284e-15)
(-4.26046e-15 1.02091e-30 -6.30104e-15)
(-5.00551e-15 -0 -7.65077e-15)
(-5.79965e-15 -1.28347e-32 -9.34822e-15)
(-6.60599e-15 -8.02263e-31 -1.137e-14)
(-7.38104e-15 -1.64017e-32 -1.36615e-14)
(-7.96225e-15 -0 -1.59021e-14)
(-8.18289e-15 -1.09031e-30 -1.75994e-14)
(-8.1446e-15 1.15292e-30 -1.87507e-14)
(-8.6002e-15 -1.31177e-32 -2.12815e-14)
(-9.84164e-15 -0 -2.58148e-14)
(-1.16003e-14 1.3205e-30 -3.19764e-14)
(-1.20143e-14 -0 -3.95403e-14)
(-7.62885e-15 -0 -3.882e-14)
(-3.08045e-15 -0 -3.53497e-14)
(-1.54921e-15 -0 -3.47269e-14)
(-1.89694e-13 -0 -3.40958e-14)
(3.66821e-18 -0 -1.19126e-15)
(3.43733e-17 2.98033e-32 -1.02512e-15)
(-4.99358e-17 -0 -8.61888e-16)
(-8.36303e-17 -1.63922e-33 -7.61604e-16)
(-9.89676e-17 -0 -7.09292e-16)
(-1.07366e-16 -1.62475e-32 -6.73879e-16)
(-1.11438e-16 -0 -6.4511e-16)
(-1.14096e-16 -0 -6.26717e-16)
(-1.15767e-16 -0 -6.15604e-16)
(-1.1678e-16 -0 -6.08217e-16)
(-1.17435e-16 -0 -6.04035e-16)
(-1.17796e-16 -0 -6.01535e-16)
(-1.17749e-16 -0 -5.99141e-16)
(-1.17597e-16 -0 -5.9749e-16)
(-1.17426e-16 1.2862e-33 -5.96354e-16)
(-1.16974e-16 -0 -5.93789e-16)
(-1.1708e-16 -0 -5.91924e-16)
(-1.18364e-16 -0 -5.90983e-16)
(-1.22211e-16 -0 -5.91202e-16)
(-1.31099e-16 1.28886e-33 -5.97685e-16)
(-1.49121e-16 1.33066e-33 -6.17236e-16)
(-1.79822e-16 -0 -6.48261e-16)
(-2.18245e-16 -1.91e-32 -7.074e-16)
(-2.59526e-16 2.24334e-32 -7.70023e-16)
(-3.47894e-16 -2.58179e-32 -8.46661e-16)
(-5.76005e-16 -0 -9.86637e-16)
(-1.20329e-15 -6.21859e-32 -1.07e-15)
(-2.36102e-15 -2.66606e-33 -1.3637e-15)
(-1.90667e-15 -3.95707e-33 -2.06909e-15)
(-1.84723e-15 -0 -2.63512e-15)
(-2.08733e-15 -2.64576e-31 -3.14955e-15)
(-2.48739e-15 3.10634e-31 -3.70836e-15)
(-3.00136e-15 -3.71807e-31 -4.38223e-15)
(-3.61773e-15 -0 -5.25954e-15)
(-4.30648e-15 -5.34627e-31 -6.32868e-15)
(-5.05347e-15 -6.15519e-31 -7.684e-15)
(-5.83019e-15 -1.24492e-32 -9.28661e-15)
(-6.61873e-15 -0 -1.12423e-14)
(-7.30887e-15 -1.51932e-32 -1.32856e-14)
(-7.7574e-15 1.01337e-30 -1.51402e-14)
(-7.77601e-15 1.10315e-30 -1.62661e-14)
(-7.70016e-15 -1.19009e-30 -1.71717e-14)
(-8.29071e-15 -9.37208e-33 -1.97385e-14)
(-9.59753e-15 1.30418e-30 -2.41963e-14)
(-1.13132e-14 -1.36529e-30 -3.01472e-14)
(-1.12149e-14 1.37869e-30 -3.67871e-14)
(-6.43214e-15 -0 -3.55893e-14)
(-2.6031e-15 -0 -3.40016e-14)
(-1.3129e-15 -0 -3.3856e-14)
(-1.85563e-13 -0 -3.35041e-14)
(-4.97648e-18 -0 -1.26137e-15)
(3.6128e-17 -3.14582e-32 -1.09309e-15)
(-5.23345e-17 -0 -9.30543e-16)
(-8.97996e-17 -1.77373e-33 -8.24962e-16)
(-1.07603e-16 -0 -7.72519e-16)
(-1.15704e-16 1.73119e-32 -7.31191e-16)
(-1.20332e-16 -0 -7.00885e-16)
(-1.23617e-16 -0 -6.81266e-16)
(-1.25831e-16 -0 -6.70343e-16)
(-1.27301e-16 -0 -6.64162e-16)
(-1.28018e-16 -0 -6.59375e-16)
(-1.28442e-16 -0 -6.56903e-16)
(-1.2842e-16 -0 -6.5398e-16)
(-1.28415e-16 -0 -6.52946e-16)
(-1.27958e-16 1.40264e-33 -6.50894e-16)
(-1.2779e-16 -0 -6.49535e-16)
(-1.27801e-16 -0 -6.47105e-16)
(-1.2895e-16 -0 -6.44981e-16)
(-1.33119e-16 -0 -6.45239e-16)
(-1.42619e-16 1.40196e-33 -6.50696e-16)
(-1.6195e-16 1.73669e-32 -6.70921e-16)
(-1.94757e-16 -1.74284e-32 -7.04854e-16)
(-2.34002e-16 2.02473e-32 -7.62069e-16)
(-2.76864e-16 -0 -8.28373e-16)
(-3.68314e-16 1.94184e-33 -9.07514e-16)
(-5.99453e-16 -0 -1.04056e-15)
(-1.22817e-15 -0 -1.16162e-15)
(-2.3797e-15 -2.81685e-33 -1.44044e-15)
(-1.96807e-15 -4.07631e-33 -2.13733e-15)
(-1.89801e-15 2.24529e-31 -2.72087e-15)