/*--------------------------------*- C++ -*----------------------------------*\
| =========                 |                                                 |
| \\      /  F ield         | OpenFOAM: The Open Source CFD Toolbox           |
|  \\    /   O peration     | Version:  v1606+                                |
|   \\  /    A nd           | Web:      www.OpenFOAM.com                      |
|    \\/     M anipulation  |                                                 |
\*---------------------------------------------------------------------------*/
FoamFile
{
    version     2.0;
    format      ascii;
    class       volScalarField;
    location    "0";
    object      theta;
}
// * * * * * * * * * * * * * * * * * * * * * * * * * * * * * * * * * * * * * //

dimensions      [0 0 0 0 0 0 0];

internalField   nonuniform List<scalar> 
4250
(
0.392978
0.394485
0.395799
0.396963
0.397999
0.398926
0.39976
0.400515
0.401203
0.401833
0.402416
0.402958
0.403466
0.403946
0.404403
0.404841
0.405267
0.405683
0.406096
0.406511
0.406936
0.407381
0.407857
0.408381
0.408971
0.40965
0.410439
0.411359
0.412
0.412
0.412
0.412
0.412
0.412
0.412
0.412
0.412
0.412
0.412
0.412
0.412
0.412
0.412
0.412
0.412
0.412
0.412
0.412
0.412
0.412
0.392046
0.393531
0.394842
0.396003
0.397038
0.397965
0.398799
0.399554
0.400243
0.400875
0.401459
0.402003
0.402513
0.402996
0.403456
0.403898
0.404326
0.404746
0.405163
0.405583
0.406014
0.406465
0.406949
0.407483
0.408087
0.408786
0.409609
0.410593
0.41175
0.412
0.412
0.412
0.412
0.412
0.412
0.412
0.412
0.412
0.412
0.412
0.412
0.412
0.412
0.412
0.412
0.412
0.412
0.412
0.412
0.412
0.391128
0.392591
0.393897
0.395055
0.396088
0.397012
0.397846
0.3986
0.399289
0.399921
0.400506
0.401051
0.401562
0.402046
0.402507
0.402951
0.403381
0.403804
0.404223
0.404646
0.40508
0.405536
0.406025
0.406565
0.407177
0.407889
0.408733
0.409752
0.410999
0.412
0.412
0.412
0.412
0.412
0.412
0.412
0.412
0.412
0.412
0.412
0.412
0.412
0.412
0.412
0.412
0.412
0.412
0.412
0.412
0.412
0.390222
0.391663
0.392963
0.394116
0.395145
0.396067
0.396898
0.397651
0.398339
0.39897
0.399554
0.400099
0.40061
0.401094
0.401556
0.402001
0.402432
0.402856
0.403276
0.403701
0.404137
0.404594
0.405086
0.405629
0.406246
0.406966
0.407821
0.40886
0.410137
0.411506
0.412
0.412
0.412
0.412
0.412
0.412
0.412
0.412
0.412
0.412
0.412
0.412
0.412
0.412
0.412
0.412
0.412
0.412
0.412
0.412
0.38933
0.390749
0.39204
0.393189
0.394213
0.395131
0.395959
0.39671
0.397395
0.398025
0.398607
0.399151
0.399662
0.400145
0.400606
0.401051
0.401482
0.401905
0.402326
0.402751
0.403188
0.403645
0.404138
0.404682
0.405301
0.406024
0.406885
0.407932
0.409219
0.410657
0.411942
0.412
0.412
0.412
0.412
0.412
0.412
0.412
0.412
0.412
0.412
0.412
0.412
0.412
0.412
0.412
0.412
0.412
0.412
0.412
0.388454
0.389852
0.391134
0.392276
0.393295
0.394209
0.395033
0.39578
0.396463
0.39709
0.397671
0.398212
0.398721
0.399203
0.399664
0.400107
0.400537
0.40096
0.401381
0.401805
0.40224
0.402698
0.403189
0.403733
0.404351
0.405074
0.405935
0.406981
0.408264
0.40972
0.411099
0.412
0.412
0.412
0.412
0.412
0.412
0.412
0.412
0.412
0.412
0.412
0.412
0.412
0.412
0.412
0.412
0.412
0.412
0.412
0.3876
0.388976
0.390249
0.391384
0.392397
0.393306
0.394125
0.394869
0.395548
0.396172
0.39675
0.397289
0.397796
0.398276
0.398735
0.399176
0.399605
0.400027
0.400446
0.400869
0.401303
0.401759
0.402248
0.40279
0.403405
0.404124
0.404982
0.406021
0.407287
0.408761
0.410221
0.411716
0.412
0.412
0.412
0.412
0.412
0.412
0.412
0.412
0.412
0.412
0.412
0.412
0.412
0.412
0.412
0.412
0.412
0.412
0.386771
0.388126
0.389389
0.390517
0.391524
0.392427
0.393241
0.39398
0.394654
0.395275
0.39585
0.396386
0.39689
0.397368
0.397825
0.398264
0.398692
0.399111
0.399529
0.399949
0.400381
0.400835
0.401321
0.401859
0.402469
0.403182
0.404033
0.405061
0.406304
0.407795
0.409334
0.410835
0.411928
0.412
0.412
0.412
0.412
0.412
0.412
0.412
0.412
0.412
0.412
0.412
0.412
0.412
0.412
0.412
0.412
0.412
0.38597
0.387305
0.388558
0.389677
0.390677
0.391574
0.392383
0.393117
0.393787
0.394404
0.394975
0.395508
0.396009
0.396484
0.396938
0.397376
0.397801
0.398218
0.398633
0.399052
0.399481
0.39993
0.400413
0.400945
0.401549
0.402253
0.403093
0.404108
0.405327
0.406822
0.40837
0.409853
0.411037
0.412
0.412
0.412
0.412
0.412
0.412
0.412
0.412
0.412
0.412
0.412
0.412
0.412
0.412
0.412
0.412
0.412
0.385199
0.386515
0.387757
0.388868
0.389861
0.390751
0.391554
0.392282
0.392948
0.39356
0.394127
0.394657
0.395155
0.395627
0.396078
0.396513
0.396935
0.39735
0.397762
0.398178
0.398604
0.39905
0.399527
0.400053
0.400647
0.40134
0.402165
0.403163
0.404364
0.405812
0.407354
0.408878
0.410202
0.411839
0.412
0.412
0.412
0.412
0.412
0.412
0.412
0.412
0.412
0.412
0.412
0.412
0.412
0.412
0.412
0.412
0.384459
0.385756
0.386987
0.38809
0.389075
0.389958
0.390755
0.391478
0.392138
0.392745
0.393308
0.393834
0.394328
0.394797
0.395245
0.395677
0.396097
0.396509
0.396918
0.39733
0.397752
0.398194
0.398665
0.399183
0.399767
0.400445
0.401251
0.402226
0.403407
0.404785
0.406333
0.407908
0.409356
0.410779
0.41193
0.412
0.412
0.412
0.412
0.412
0.412
0.412
0.412
0.412
0.412
0.412
0.412
0.412
0.412
0.412
0.383749
0.385028
0.386249
0.387343
0.38832
0.389196
0.389986
0.390703
0.391357
0.39196
0.392518
0.393039
0.39353
0.393996
0.39444
0.394869
0.395286
0.395695
0.396101
0.396509
0.396927
0.397363
0.397828
0.398337
0.398909
0.39957
0.400354
0.401298
0.402446
0.403775
0.405327
0.406942
0.408494
0.409997
0.411103
0.412
0.412
0.412
0.412
0.412
0.412
0.412
0.412
0.412
0.412
0.412
0.412
0.412
0.412
0.412
0.38307
0.384332
0.385541
0.386627
0.387596
0.388465
0.389248
0.389958
0.390606
0.391203
0.391756
0.392273
0.39276
0.393222
0.393663
0.394089
0.394502
0.394908
0.39531
0.395715
0.396128
0.396558
0.397016
0.397515
0.398074
0.398717
0.399475
0.400386
0.401491
0.402789
0.404329
0.405947
0.40755
0.409078
0.410339
0.41179
0.412
0.412
0.412
0.412
0.412
0.412
0.412
0.412
0.412
0.412
0.412
0.412
0.412
0.412
0.38242
0.383667
0.384865
0.385941
0.386902
0.387762
0.388538
0.389241
0.389883
0.390474
0.391022
0.391535
0.392017
0.392475
0.392913
0.393335
0.393745
0.394147
0.394546
0.394946
0.395355
0.395778
0.396228
0.396717
0.397262
0.397885
0.398617
0.399491
0.400549
0.401817
0.403306
0.404914
0.406547
0.408123
0.40953
0.410612
0.411967
0.412
0.412
0.412
0.412
0.412
0.412
0.412
0.412
0.412
0.412
0.412
0.412
0.412
0.381798
0.38303
0.384217
0.385284
0.386236
0.387088
0.387856
0.388552
0.389188
0.389772
0.390315
0.390822
0.3913
0.391754
0.392188
0.392606
0.393013
0.393412
0.393807
0.394203
0.394606
0.395023
0.395465
0.395942
0.396473
0.397077
0.397781
0.398618
0.399626
0.400844
0.402288
0.40389
0.405543
0.407165
0.408684
0.409933
0.4113
0.412
0.412
0.412
0.412
0.412
0.412
0.412
0.412
0.412
0.412
0.412
0.412
0.412
0.381203
0.38242
0.383596
0.384654
0.385597
0.386441
0.3872
0.387889
0.388517
0.389096
0.389633
0.390134
0.390608
0.391057
0.391487
0.391902
0.392305
0.3927
0.393092
0.393483
0.393881
0.394292
0.394725
0.395191
0.395707
0.396291
0.396969
0.39777
0.398729
0.39989
0.401297
0.402878
0.404526
0.406178
0.407779
0.409245
0.410588
0.411824
0.412
0.412
0.412
0.412
0.412
0.412
0.412
0.412
0.412
0.412
0.412
0.412
0.380632
0.381836
0.383001
0.384049
0.384983
0.385818
0.38657
0.38725
0.387871
0.388443
0.388974
0.38947
0.389938
0.390383
0.39081
0.391221
0.39162
0.392012
0.392399
0.392787
0.393179
0.393583
0.394008
0.394463
0.394963
0.395527
0.396179
0.396947
0.397862
0.398965
0.400316
0.401847
0.403484
0.405152
0.406798
0.408369
0.409781
0.410844
0.412
0.412
0.412
0.412
0.412
0.412
0.412
0.412
0.412
0.412
0.412
0.412
0.380085
0.381277
0.382431
0.383469
0.384393
0.385219
0.385962
0.386634
0.387247
0.387812
0.388336
0.388827
0.389291
0.389731
0.390153
0.390561
0.390957
0.391345
0.391729
0.392112
0.392499
0.392897
0.393312
0.393756
0.394242
0.394786
0.395411
0.396145
0.397021
0.398073
0.39934
0.400826
0.402449
0.404122
0.405794
0.407421
0.408934
0.410157
0.411582
0.412
0.412
0.412
0.412
0.412
0.412
0.412
0.412
0.412
0.412
0.412
0.37956
0.380739
0.381882
0.38291
0.383825
0.384642
0.385375
0.386038
0.386644
0.387202
0.38772
0.388205
0.388663
0.389099
0.389517
0.389921
0.390314
0.390698
0.391078
0.391457
0.391839
0.392231
0.392638
0.393072
0.393542
0.394067
0.394666
0.395365
0.396198
0.3972
0.398399
0.399838
0.401426
0.403087
0.404771
0.406439
0.408038
0.409468
0.410868
0.411894
0.412
0.412
0.412
0.412
0.412
0.412
0.412
0.412
0.412
0.412
0.379054
0.380222
0.381355
0.382373
0.383277
0.384084
0.384807
0.385462
0.38606
0.38661
0.387121
0.387601
0.388054
0.388486
0.3889
0.3893
0.389689
0.39007
0.390446
0.390821
0.391199
0.391584
0.391984
0.392407
0.392864
0.39337
0.393944
0.39461
0.395398
0.396346
0.39749
0.398864
0.400414
0.402065
0.403755
0.405443
0.407091
0.408645
0.41006
0.411111
0.412
0.412
0.412
0.412
0.412
0.412
0.412
0.412
0.412
0.412
0.378567
0.379724
0.380846
0.381853
0.382748
0.383544
0.384258
0.384903
0.385492
0.386035
0.38654
0.387014
0.387462
0.387889
0.388299
0.388696
0.389082
0.38946
0.389832
0.390204
0.390577
0.390957
0.391349
0.391763
0.392207
0.392696
0.393246
0.393881
0.394627
0.395521
0.396606
0.397921
0.399433
0.401058
0.402741
0.404442
0.406121
0.407729
0.409217
0.410426
0.411779
0.412
0.412
0.412
0.412
0.412
0.412
0.412
0.412
0.412
0.378096
0.379243
0.380354
0.381351
0.382235
0.383021
0.383725
0.384361
0.384941
0.385476
0.385974
0.386442
0.386885
0.387308
0.387715
0.388108
0.388491
0.388865
0.389235
0.389602
0.389971
0.390346
0.390732
0.391136
0.391569
0.392042
0.392571
0.393178
0.393886
0.39473
0.395754
0.397015
0.398469
0.400057
0.401724
0.403426
0.405131
0.406794
0.408347
0.409701
0.410789
0.412
0.412
0.412
0.412
0.412
0.412
0.412
0.412
0.412
0.377641
0.378778
0.379879
0.380865
0.381737
0.382512
0.383206
0.383832
0.384404
0.384932
0.385423
0.385885
0.386324
0.386742
0.387145
0.387535
0.387914
0.388286
0.388653
0.389017
0.389382
0.389752
0.390131
0.390528
0.390949
0.391407
0.391917
0.392498
0.393174
0.393975
0.394941
0.396131
0.397526
0.399081
0.40073
0.402426
0.404135
0.405824
0.407453
0.408941
0.410127
0.411487
0.412
0.412
0.412
0.412
0.412
0.412
0.412
0.412
0.3772
0.378328
0.379417
0.380392
0.381254
0.382018
0.382701
0.383317
0.383881
0.3844
0.384885
0.385342
0.385775
0.386189
0.386589
0.386975
0.387352
0.387721
0.388085
0.388446
0.388807
0.389172
0.389546
0.389935
0.390346
0.390791
0.391283
0.39184
0.392485
0.393248
0.394164
0.395278
0.396617
0.398126
0.399745
0.401428
0.403141
0.404852
0.406513
0.40809
0.409506
0.410834
0.411885
0.412
0.412
0.412
0.412
0.412
0.412
0.412
0.376771
0.37789
0.378969
0.379932
0.380782
0.381535
0.382207
0.382814
0.383368
0.38388
0.384359
0.38481
0.385238
0.385649
0.386045
0.386428
0.386802
0.387169
0.38753
0.387888
0.388246
0.388607
0.388976
0.389358
0.38976
0.390192
0.390667
0.391202
0.391817
0.392542
0.393411
0.394464
0.395738
0.397197
0.398788
0.400454
0.40216
0.403878
0.405575
0.407203
0.408721
0.410103
0.411158
0.412
0.412
0.412
0.412
0.412
0.412
0.412
0.376353
0.377464
0.378532
0.379483
0.380322
0.381063
0.381724
0.382321
0.382867
0.383371
0.383843
0.384289
0.384713
0.38512
0.385512
0.385893
0.386264
0.386628
0.386987
0.387342
0.387697
0.388054
0.388419
0.388794
0.389188
0.38961
0.390069
0.390583
0.391171
0.391859
0.392682
0.393683
0.394895
0.396309
0.397862
0.399503
0.401198
0.402917
0.404623
0.406292
0.407885
0.409334
0.410506
0.411792
0.412
0.412
0.412
0.412
0.412
0.412
0.375946
0.377048
0.378105
0.379045
0.379871
0.3806
0.38125
0.381837
0.382374
0.382871
0.383337
0.383777
0.384197
0.3846
0.38499
0.385368
0.385737
0.386098
0.386455
0.386807
0.387159
0.387513
0.387873
0.388244
0.38863
0.389042
0.389488
0.389984
0.390547
0.391201
0.39198
0.392929
0.394091
0.395451
0.396959
0.398572
0.40025
0.401965
0.403688
0.405378
0.407013
0.408556
0.409852
0.410922
0.412
0.412
0.412
0.412
0.412
0.412
0.375549
0.376643
0.377688
0.378615
0.379429
0.380146
0.380785
0.381362
0.38189
0.38238
0.38284
0.383275
0.383691
0.384091
0.384477
0.384853
0.385219
0.385579
0.385932
0.386283
0.386632
0.386983
0.387339
0.387704
0.388085
0.388487
0.388922
0.389402
0.389943
0.390568
0.391308
0.392206
0.393317
0.39462
0.396088
0.397673
0.39933
0.401032
0.402749
0.404461
0.406131
0.407732
0.409171
0.410286
0.411667
0.412
0.412
0.412
0.412
0.412
0.37516
0.376246
0.37728
0.378194
0.378995
0.379699
0.380327
0.380894
0.381414
0.381897
0.382351
0.382782
0.383193
0.38359
0.383974
0.384347
0.384711
0.385068
0.38542
0.385768
0.386115
0.386463
0.386815
0.387176
0.38755
0.387945
0.388369
0.388835
0.389358
0.389958
0.390664
0.391516
0.39257
0.393823
0.395247
0.396792
0.398422
0.400109
0.401827
0.403541
0.405231
0.406876
0.40841
0.409725
0.410729
0.41199
0.412
0.412
0.412
0.412
0.374781
0.375858
0.37688
0.377781
0.378568
0.37926
0.379877
0.380434
0.380946
0.381422
0.38187
0.382296
0.382704
0.383098
0.383479
0.38385
0.384212
0.384567
0.384916
0.385262
0.385607
0.385952
0.386301
0.386658
0.387026
0.387414
0.387829
0.388282
0.388788
0.389367
0.390044
0.390857
0.391852
0.393052
0.394424
0.395933
0.39754
0.39921
0.400917
0.402638
0.404344
0.406011
0.407605
0.409066
0.410171
0.411465
0.412
0.412
0.412
0.412
0.374411
0.375479
0.376488
0.377375
0.378149
0.378828
0.379433
0.37998
0.380484
0.380953
0.381396
0.381818
0.382222
0.382613
0.382992
0.38336
0.38372
0.384073
0.384421
0.384765
0.385107
0.385449
0.385795
0.386148
0.386512
0.386893
0.387299
0.38774
0.388231
0.388789
0.389441
0.390219
0.391162
0.392306
0.393631
0.395107
0.396687
0.398337
0.400032
0.401743
0.403456
0.405146
0.40678
0.408313
0.409656
0.410891
0.411915
0.412
0.412
0.412
0.37405
0.375109
0.376105
0.376977
0.377736
0.378403
0.378996
0.379534
0.380029
0.380492
0.380929
0.381347
0.381748
0.382136
0.382512
0.382879
0.383237
0.383588
0.383933
0.384275
0.384615
0.384955
0.385298
0.385648
0.386007
0.386382
0.38678
0.38721
0.387686
0.388225
0.388851
0.389596
0.390498
0.39159
0.392873
0.394306
0.39585
0.397476
0.39916
0.400876
0.40259
0.404287
0.405951
0.407539
0.408982
0.410291
0.411306
0.412
0.412
0.412
0.373699
0.374749
0.375731
0.376588
0.377332
0.377984
0.378566
0.379094
0.379581
0.380038
0.38047
0.380884
0.381282
0.381667
0.382041
0.382406
0.382762
0.383111
0.383454
0.383794
0.384132
0.38447
0.38481
0.385156
0.385512
0.385882
0.386272
0.386693
0.387155
0.387675
0.388276
0.388989
0.389854
0.390901
0.392138
0.393529
0.395044
0.396649
0.398315
0.400019
0.401741
0.403447
0.405131
0.406747
0.408273
0.409641
0.410752
0.411854
0.412
0.412
0.37336
0.3744
0.375366
0.376207
0.376936
0.377574
0.378144
0.378662
0.379142
0.379592
0.38002
0.38043
0.380825
0.381208
0.38158
0.381942
0.382296
0.382643
0.382985
0.383322
0.383658
0.383993
0.384331
0.384674
0.385026
0.385392
0.385776
0.386188
0.386638
0.387141
0.387719
0.388402
0.389231
0.39024
0.39143
0.392783
0.394269
0.395848
0.397494
0.399182
0.40089
0.402609
0.404305
0.40596
0.407531
0.40896
0.410214
0.4112
0.412
0.412
0.373031
0.37406
0.375011
0.375835
0.376547
0.377172
0.377729
0.378238
0.37871
0.379154
0.379578
0.379984
0.380377
0.380757
0.381127
0.381487
0.381839
0.382184
0.382524
0.38286
0.383193
0.383526
0.383862
0.384202
0.38455
0.384912
0.385291
0.385695
0.386135
0.386623
0.38718
0.387836
0.388629
0.389601
0.39075
0.392067
0.393513
0.395059
0.396682
0.398362
0.40007
0.40178
0.403494
0.405164
0.406778
0.408283
0.409611
0.410678
0.411869
0.412
0.372714
0.373731
0.374665
0.375471
0.376166
0.376776
0.377322
0.377821
0.378285
0.378724
0.379144
0.379547
0.379936
0.380314
0.380682
0.38104
0.38139
0.381733
0.382071
0.382405
0.382736
0.383067
0.3834
0.383737
0.384083
0.384441
0.384815
0.385213
0.385644
0.386119
0.386658
0.387288
0.388049
0.388983
0.390094
0.39137
0.392778
0.394296
0.395897
0.397558
0.39926
0.400978
0.402687
0.404387
0.406031
0.407579
0.408974
0.410196
0.411144
0.412
0.372408
0.373413
0.374328
0.375115
0.375793
0.376388
0.376922
0.377411
0.377869
0.378302
0.378717
0.379117
0.379504
0.379879
0.380245
0.380601
0.380949
0.38129
0.381626
0.381958
0.382287
0.382615
0.382946
0.383281
0.383624
0.383978
0.384348
0.38474
0.385163
0.385628
0.386151
0.386758
0.387488
0.388385
0.389459
0.390692
0.392066
0.393559
0.395139
0.396779
0.398458
0.400168
0.401886
0.403591
0.405263
0.406864
0.408335
0.409646
0.410099
0.411942
0.372116
0.373107
0.374002
0.374769
0.375429
0.376008
0.37653
0.37701
0.37746
0.377888
0.378299
0.378696
0.37908
0.379453
0.379816
0.38017
0.380516
0.380856
0.381189
0.381519
0.381845
0.382172
0.3825
0.382832
0.383172
0.383523
0.383889
0.384277
0.384693
0.385149
0.385659
0.386246
0.386948
0.387808
0.388843
0.390036
0.391377
0.392836
0.394386
0.396006
0.397676
0.399369
0.401085
0.402795
0.404491
0.406128
0.407662
0.409037
0.409725
0.411283
0.371842
0.372817
0.373691
0.374436
0.375076
0.37564
0.376149
0.37662
0.377063
0.377486
0.377893
0.378287
0.378668
0.379039
0.379399
0.379751
0.380095
0.380432
0.380764
0.381091
0.381415
0.381739
0.382065
0.382395
0.382732
0.38308
0.383442
0.383825
0.384236
0.384684
0.385183
0.385754
0.38643
0.387255
0.388249
0.389404
0.390708
0.39213
0.393648
0.395245
0.396903
0.398597
0.4003
0.402017
0.403713
0.405379
0.406971
0.408415
0.409462
0.410273
0.371584
0.372542
0.373393
0.374115
0.374736
0.375284
0.37578
0.376242
0.376678
0.377096
0.377499
0.377889
0.378268
0.378636
0.378994
0.379344
0.379685
0.38002
0.380349
0.380674
0.380996
0.381317
0.381641
0.381968
0.382302
0.382647
0.383006
0.383385
0.38379
0.384231
0.384721
0.385279
0.385933
0.386724
0.387677
0.388794
0.390058
0.391447
0.392942
0.394518
0.396154
0.397835
0.39954
0.401246
0.402954
0.404636
0.406263
0.407786
0.409077
0.409938
0.371344
0.372283
0.37311
0.373808
0.374408
0.374939
0.375423
0.375875
0.376305
0.376718
0.377116
0.377503
0.377878
0.378244
0.378599
0.378946
0.379285
0.379617
0.379944
0.380266
0.380586
0.380905
0.381225
0.38155
0.381881
0.382223
0.382578
0.382953
0.383353
0.383787
0.384268
0.384814
0.38545
0.386211
0.387124
0.388202
0.389429
0.39079
0.392263
0.393817
0.395432
0.397088
0.398781
0.40049
0.402197
0.403884
0.405537
0.407121
0.408541
0.409678
0.371124
0.372043
0.372843
0.373516
0.374094
0.374608
0.37508
0.375523
0.375946
0.376353
0.376747
0.37713
0.377502
0.377864
0.378217
0.378561
0.378897
0.379226
0.37955
0.379869
0.380186
0.380502
0.38082
0.381141
0.38147
0.381808
0.38216
0.382531
0.382926
0.383354
0.383826
0.384359
0.384978
0.385714
0.386594
0.387635
0.388828
0.390158
0.391596
0.393123
0.394721
0.396369
0.398043
0.399747
0.401448
0.403151
0.404821
0.406439
0.407944
0.409269
0.370929
0.371825
0.372596
0.373242
0.373798
0.374296
0.374754
0.375188
0.375604
0.376005
0.376394
0.376773
0.377141
0.377499
0.377849
0.378189
0.378522
0.378848
0.379169
0.379485
0.379799
0.380112
0.380426
0.380744
0.38107
0.381405
0.381754
0.38212
0.382511
0.382932
0.383395
0.383916
0.384519
0.385232
0.386085
0.387092
0.38825
0.389544
0.390948
0.392445
0.394022
0.39566
0.397334
0.399023
0.400731
0.402427
0.404102
0.405743
0.40732
0.40878
0.370762
0.371634
0.372375
0.372993
0.373527
0.374007
0.374453
0.374877
0.375285
0.37568
0.376065
0.376438
0.376802
0.377156
0.377502
0.377838
0.378168
0.37849
0.378807
0.37912
0.37943
0.37974
0.38005
0.380365
0.380687
0.381019
0.381364
0.381727
0.382113
0.382528
0.382984
0.383494
0.38408
0.384773
0.385599
0.386573
0.387698
0.388956
0.39033
0.391803
0.393357
0.394973
0.396637
0.398323
0.400022
0.401718
0.403407
0.405066
0.406677
0.408269
0.370621
0.371467
0.372177
0.372766
0.373277
0.37374
0.374173
0.374588
0.374988
0.375377
0.375756
0.376124
0.376483
0.376833
0.377173
0.377506
0.377831
0.378149
0.378462
0.378771
0.379077
0.379383
0.37969
0.380001
0.380319
0.380646
0.380987
0.381346
0.381728
0.382138
0.382586
0.383086
0.383658
0.384331
0.385133
0.386076
0.387168
0.388393
0.38974
0.391191
0.392723
0.394314
0.395955
0.397635
0.399325
0.40103
0.40272
0.404388
0.406028
0.407696
0.37051
0.371329
0.372005
0.372565
0.373053
0.373499
0.373919
0.374324
0.374716
0.375098
0.37547
0.375833
0.376186
0.376531
0.376866
0.377194
0.377514
0.377828
0.378136
0.378441
0.378743
0.379044
0.379346
0.379653
0.379966
0.380289
0.380626
0.38098
0.381357
0.381762
0.382204
0.382694
0.383253
0.383907
0.384685
0.385601
0.38666
0.387853
0.38917
0.39059
0.392096
0.39367
0.395292
0.396955
0.398647
0.400342
0.402031
0.403708
0.405371
0.407099
0.370433
0.371221
0.371863
0.372393
0.372858
0.373287
0.373694
0.374089
0.374473
0.374847
0.375213
0.375569
0.375916
0.376254
0.376584
0.376906
0.377221
0.37753
0.377833
0.378132
0.378429
0.378725
0.379023
0.379324
0.379633
0.379951
0.380282
0.380632
0.381003
0.381403
0.381837
0.382319
0.382865
0.383501
0.384257
0.385147
0.386174
0.387333
0.388615
0.39
0.391477
0.393032
0.394647
0.396295
0.397977
0.399667
0.401367
0.403056
0.404727
0.406484
0.370394
0.371151
0.371758
0.372259
0.372701
0.373112
0.373507
0.373891
0.374267
0.374633
0.374991
0.37534
0.375681
0.376013
0.376336
0.376652
0.376961
0.377264
0.377562
0.377855
0.378147
0.378437
0.37873
0.379025
0.379328
0.37964
0.379966
0.38031
0.380676
0.381069
0.381497
0.38197
0.382504
0.383123
0.383856
0.38472
0.385715
0.386843
0.38809
0.389443
0.390892
0.392423
0.394023
0.395667
0.397335
0.399028
0.400723
0.402411
0.404099
0.405876
0.370387
0.371113
0.371684
0.372155
0.372575
0.372971
0.373353
0.373727
0.374093
0.374451
0.374801
0.375143
0.375476
0.375801
0.376118
0.376428
0.37673
0.377027
0.377318
0.377606
0.377891
0.378176
0.378462
0.378752
0.379048
0.379354
0.379674
0.380011
0.38037
0.380757
0.381178
0.381642
0.382164
0.382767
0.383478
0.384315
0.38528
0.386375
0.387589
0.388913
0.390336
0.391842
0.393418
0.395049
0.39671
0.398397
0.400087
0.40178
0.403479
0.405286
0.370413
0.371107
0.371643
0.372085
0.372484
0.372863
0.373234
0.373597
0.373954
0.374304
0.374645
0.374979
0.375305
0.375622
0.375932
0.376234
0.37653
0.37682
0.377105
0.377386
0.377665
0.377943
0.378223
0.378506
0.378795
0.379095
0.379407
0.379737
0.380089
0.380469
0.380882
0.381337
0.381848
0.382434
0.383123
0.383933
0.384868
0.38593
0.387111
0.388405
0.389802
0.391283
0.392832
0.394441
0.396095
0.39777
0.399462
0.401166
0.402871
0.404685
0.370479
0.37114
0.371641
0.372054
0.372432
0.372797
0.373155
0.373508
0.373855
0.374196
0.374529
0.374855
0.375172
0.375482
0.375784
0.376079
0.376368
0.376651
0.376929
0.377203
0.377475
0.377746
0.378019
0.378295
0.378577
0.378869
0.379174
0.379496
0.37984
0.380211
0.380615
0.381061
0.38156
0.38213
0.382797
0.383579
0.384484
0.385512
0.386659
0.387922
0.389286
0.390739
0.392266
0.393852
0.395491
0.397159
0.398852
0.40055
0.402263
0.404092
0.370579
0.371207
0.371673
0.37206
0.372418
0.372768
0.373115
0.373458
0.373796
0.374128
0.374453
0.37477
0.37508
0.375381
0.375676
0.375963
0.376245
0.37652
0.376791
0.377058
0.377323
0.377587
0.377853
0.378122
0.378396
0.37868
0.378977
0.379291
0.379626
0.379988
0.380383
0.380818
0.381305
0.381859
0.382504
0.383258
0.384132
0.385127
0.386241
0.387468
0.388796
0.390218
0.391724
0.393296
0.394916
0.39658
0.398262
0.399957
0.401674
0.403519
0.370708
0.371303
0.371735
0.372096
0.372437
0.372773
0.373109
0.373442
0.373771
0.374094
0.37441
0.374719
0.375021
0.375315
0.375601
0.375881
0.376155
0.376423
0.376687
0.376947
0.377205
0.377462
0.37772
0.377981
0.378248
0.378524
0.378813
0.379117
0.379443
0.379795
0.38018
0.380604
0.381078
0.381616
0.382238
0.382964
0.383806
0.384768
0.385849
0.38704
0.388333
0.389723
0.391201
0.392754
0.394359
0.39601
0.397687
0.399388
0.40111
0.402955
0.370868
0.371429
0.371829
0.372165
0.372488
0.372812
0.373137
0.373461
0.373781
0.374095
0.374403
0.374704
0.374997
0.375283
0.375562
0.375835
0.376101
0.376362
0.376618
0.376871
0.377122
0.377372
0.377622
0.377876
0.378136
0.378403
0.378683
0.378979
0.379295
0.379636
0.38001
0.380422
0.380882
0.381404
0.382003
0.382701
0.38351
0.384438
0.385483
0.386639
0.387899
0.389256
0.390703
0.392229
0.393819
0.395453
0.397127
0.398825
0.400549
0.402399
0.371059
0.371588
0.371956
0.372269
0.372576
0.372888
0.373203
0.373518
0.373829
0.374135
0.374435
0.374728
0.375013
0.375292
0.375563
0.375829
0.376088
0.376341
0.376591
0.376837
0.37708
0.377323
0.377566
0.377813
0.378064
0.378324
0.378596
0.378882
0.379189
0.37952
0.379882
0.380282
0.380728
0.381231
0.381809
0.382479
0.383257
0.38415
0.385159
0.386279
0.387505
0.388829
0.390242
0.391737
0.393304
0.394922
0.396587
0.398277
0.400001
0.401862
0.37127
0.371766
0.372104
0.372396
0.372689
0.37299
0.373295
0.373601
0.373904
0.374202
0.374494
0.374779
0.375058
0.375329
0.375593
0.375851
0.376103
0.37635
0.376593
0.376832
0.377068
0.377304
0.377541
0.37778
0.378024
0.378276
0.378539
0.378817
0.379114
0.379435
0.379786
0.380173
0.380604
0.381091
0.381646
0.38229
0.383036
0.383894
0.384866
0.385949
0.387139
0.388428
0.389807
0.391267
0.392803
0.394405
0.396053
0.397738
0.399463
0.401325
0.371504
0.371968
0.372276
0.372548
0.372827
0.373117
0.373414
0.373712
0.374007
0.374297
0.374582
0.374859
0.37513
0.375394
0.375652
0.375903
0.376148
0.376388
0.376624
0.376857
0.377087
0.377316
0.377546
0.377778
0.378015
0.37826
0.378515
0.378784
0.379072
0.379383
0.379722
0.380097
0.380514
0.380983
0.381518
0.382135
0.382849
0.383671
0.384606
0.385651
0.386801
0.38805
0.389392
0.390819
0.392323
0.393899
0.395529
0.39721
0.398936
0.400793
0.371761
0.372193
0.372473
0.372727
0.372993
0.373274
0.373562
0.373852
0.37414
0.374423
0.3747
0.37497
0.375234
0.375492
0.375742
0.375987
0.376226
0.37646
0.37669
0.376916
0.37714
0.377363
0.377586
0.377812
0.378042
0.378279
0.378526
0.378787
0.379066
0.379368
0.379697
0.38006
0.380463
0.380917
0.381431
0.382021
0.382705
0.383492
0.384388
0.385393
0.386503
0.387711
0.389014
0.390406
0.391878
0.393425
0.395036
0.396703
0.39842
0.40028
0.372031
0.372431
0.372684
0.372921
0.373176
0.373447
0.373728
0.37401
0.37429
0.374566
0.374836
0.3751
0.375357
0.375608
0.375853
0.376091
0.376324
0.376552
0.376775
0.376996
0.377214
0.37743
0.377648
0.377867
0.378091
0.378321
0.378561
0.378815
0.379085
0.379377
0.379696
0.380048
0.380438
0.380876
0.381372
0.381938
0.382591
0.383343
0.384201
0.385166
0.386234
0.387401
0.388662
0.390015
0.391452
0.392965
0.394553
0.3962
0.397907
0.399764
0.372324
0.372692
0.372919
0.37314
0.373385
0.373648
0.37392
0.374195
0.374469
0.374738
0.375002
0.375259
0.37551
0.375755
0.375993
0.376225
0.376452
0.376675
0.376893
0.377107
0.37732
0.377531
0.377742
0.377956
0.378173
0.378397
0.37863
0.378877
0.379139
0.379423
0.379732
0.380073
0.380452
0.380876
0.381354
0.381898
0.382523
0.383241
0.384062
0.384987
0.386014
0.387139
0.388358
0.389667
0.391063
0.392541
0.394097
0.395723
0.39742
0.39927
0.372621
0.372958
0.373161
0.373367
0.373602
0.373857
0.374123
0.374391
0.374657
0.37492
0.375177
0.375429
0.375674
0.375912
0.376145
0.376372
0.376593
0.37681
0.377022
0.377232
0.377438
0.377644
0.37785
0.378058
0.37827
0.378488
0.378715
0.378954
0.379209
0.379484
0.379785
0.380116
0.380484
0.380894
0.381356
0.381881
0.38248
0.383167
0.383952
0.384837
0.385823
0.386906
0.388081
0.389344
0.390696
0.392133
0.393652
0.395252
0.396935
0.398775
0.37294
0.373244
0.373425
0.373617
0.373843
0.374091
0.374349
0.374611
0.374871
0.375127
0.375378
0.375623
0.375862
0.376095
0.376322
0.376544
0.37676
0.376971
0.377178
0.377382
0.377584
0.377785
0.377985
0.378188
0.378394
0.378606
0.378827
0.37906
0.379308
0.379576
0.379868
0.380189
0.380546
0.380945
0.381393
0.381899
0.382475
0.383133
0.383884
0.384731
0.385675
0.386713
0.387844
0.389062
0.390365
0.391757
0.393233
0.3948
0.396457
0.398283
0.37326
0.373534
0.373693
0.373873
0.374091
0.374331
0.374583
0.374838
0.375092
0.375342
0.375587
0.375827
0.37606
0.376288
0.376509
0.376725
0.376936
0.377142
0.377345
0.377544
0.377741
0.377936
0.378132
0.378329
0.37853
0.378737
0.378952
0.379178
0.37942
0.37968
0.379965
0.380277
0.380625
0.381012
0.381447
0.381937
0.382493
0.383125
0.383845
0.384656
0.38556
0.386555
0.38764
0.388812
0.390068
0.391411
0.392843
0.394366
0.39599
0.397795
0.373588
0.373831
0.37397
0.374139
0.374348
0.374582
0.374827
0.375076
0.375324
0.375568
0.375808
0.376042
0.376269
0.376492
0.376708
0.376919
0.377125
0.377326
0.377524
0.377718
0.37791
0.378101
0.378291
0.378484
0.37868
0.378881
0.37909
0.379311
0.379546
0.3798
0.380076
0.380381
0.380718
0.381095
0.381518
0.381994
0.382531
0.383141
0.383832
0.38461
0.385476
0.386429
0.387468
0.388592
0.3898
0.391091
0.392473
0.393949
0.395534
0.397312
0.373934
0.374146
0.374266
0.374425
0.374627
0.374855
0.375094
0.375336
0.375578
0.375817
0.376051
0.376279
0.376502
0.376719
0.37693
0.377136
0.377337
0.377534
0.377727
0.377917
0.378104
0.37829
0.378477
0.378664
0.378855
0.379051
0.379256
0.379471
0.3797
0.379947
0.380216
0.380513
0.380841
0.381209
0.38162
0.382083
0.382605
0.383195
0.383861
0.384609
0.38544
0.386354
0.38735
0.388426
0.389584
0.390824
0.392152
0.393577
0.395118
0.396861
0.374276
0.374457
0.37456
0.37471
0.374906
0.375127
0.37536
0.375597
0.375833
0.376066
0.376294
0.376518
0.376735
0.376947
0.377153
0.377355
0.377551
0.377743
0.377932
0.378117
0.3783
0.378482
0.378663
0.378846
0.379033
0.379224
0.379423
0.379633
0.379856
0.380097
0.380359
0.380648
0.380969
0.381326
0.381727
0.382178
0.382685
0.383257
0.383902
0.384623
0.385423
0.3863
0.387255
0.388286
0.389394
0.390583
0.391856
0.393225
0.394713
0.396413
0.374627
0.374777
0.374865
0.375007
0.375196
0.37541
0.375638
0.375869
0.3761
0.376327
0.37655
0.376768
0.376981
0.377188
0.377389
0.377586
0.377778
0.377965
0.378149
0.37833
0.378509
0.378686
0.378864
0.379042
0.379224
0.379411
0.379605
0.379809
0.380027
0.380261
0.380517
0.380799
0.381111
0.38146
0.38185
0.382289
0.382784
0.38334
0.383965
0.384663
0.385434
0.386278
0.387194
0.388182
0.389242
0.390378
0.391596
0.392906
0.394333
0.39598
0.374982
0.375103
0.375176
0.375311
0.375493
0.375703
0.375924
0.37615
0.376375
0.376597
0.376815
0.377028
0.377236
0.377438
0.377635
0.377827
0.378014
0.378198
0.378377
0.378554
0.378728
0.378902
0.379075
0.379249
0.379426
0.379609
0.379798
0.379997
0.380209
0.380438
0.380687
0.380961
0.381266
0.381606
0.381987
0.382415
0.382897
0.383438
0.384046
0.384723
0.385469
0.386283
0.387165
0.388113
0.389128
0.390214
0.391376
0.392626
0.39399
0.395576
0.375335
0.375428
0.375488
0.375615
0.375792
0.375996
0.376212
0.376432