/*--------------------------------*- C++ -*----------------------------------*\
| =========                 |                                                 |
| \\      /  F ield         | OpenFOAM: The Open Source CFD Toolbox           |
|  \\    /   O peration     | Version:  v1606+                                |
|   \\  /    A nd           | Web:      www.OpenFOAM.com                      |
|    \\/     M anipulation  |                                                 |
\*---------------------------------------------------------------------------*/
FoamFile
{
    version     2.0;
    format      ascii;
    class       volScalarField;
    location    "0";
    object      thetag;
}
// * * * * * * * * * * * * * * * * * * * * * * * * * * * * * * * * * * * * * //

dimensions      [0 0 0 0 0 0 0];

internalField   nonuniform List<scalar> 
4250
(
0.382978
0.384485
0.385799
0.386963
0.387999
0.388926
0.38976
0.390515
0.391203
0.391833
0.392416
0.392958
0.393466
0.393946
0.394403
0.394841
0.395267
0.395683
0.396096
0.396511
0.396936
0.397381
0.397857
0.398381
0.398971
0.39965
0.400439
0.401359
0.402
0.402
0.402
0.402
0.402
0.402
0.402
0.402
0.402
0.402
0.402
0.402
0.402
0.402
0.402
0.402
0.402
0.402
0.402
0.402
0.402
0.402
0.382046
0.383531
0.384842
0.386003
0.387038
0.387965
0.388799
0.389554
0.390243
0.390875
0.391459
0.392003
0.392513
0.392996
0.393456
0.393898
0.394326
0.394746
0.395163
0.395583
0.396014
0.396465
0.396949
0.397483
0.398087
0.398786
0.399609
0.400593
0.40175
0.402
0.402
0.402
0.402
0.402
0.402
0.402
0.402
0.402
0.402
0.402
0.402
0.402
0.402
0.402
0.402
0.402
0.402
0.402
0.402
0.402
0.381128
0.382591
0.383897
0.385055
0.386088
0.387012
0.387846
0.3886
0.389289
0.389921
0.390506
0.391051
0.391562
0.392046
0.392507
0.392951
0.393381
0.393804
0.394223
0.394646
0.39508
0.395536
0.396025
0.396565
0.397177
0.397889
0.398733
0.399752
0.400999
0.402
0.402
0.402
0.402
0.402
0.402
0.402
0.402
0.402
0.402
0.402
0.402
0.402
0.402
0.402
0.402
0.402
0.402
0.402
0.402
0.402
0.380222
0.381663
0.382963
0.384116
0.385145
0.386067
0.386898
0.387651
0.388339
0.38897
0.389554
0.390099
0.39061
0.391094
0.391556
0.392001
0.392432
0.392856
0.393276
0.393701
0.394137
0.394594
0.395086
0.395629
0.396246
0.396966
0.397821
0.39886
0.400137
0.401506
0.402
0.402
0.402
0.402
0.402
0.402
0.402
0.402
0.402
0.402
0.402
0.402
0.402
0.402
0.402
0.402
0.402
0.402
0.402
0.402
0.37933
0.380749
0.38204
0.383189
0.384213
0.385131
0.385959
0.38671
0.387395
0.388025
0.388607
0.389151
0.389662
0.390145
0.390606
0.391051
0.391482
0.391905
0.392326
0.392751
0.393188
0.393645
0.394138
0.394682
0.395301
0.396024
0.396885
0.397932
0.399219
0.400657
0.401942
0.402
0.402
0.402
0.402
0.402
0.402
0.402
0.402
0.402
0.402
0.402
0.402
0.402
0.402
0.402
0.402
0.402
0.402
0.402
0.378454
0.379852
0.381134
0.382276
0.383295
0.384209
0.385033
0.38578
0.386463
0.38709
0.387671
0.388212
0.388721
0.389203
0.389664
0.390107
0.390537
0.39096
0.391381
0.391805
0.39224
0.392698
0.393189
0.393733
0.394351
0.395074
0.395935
0.396981
0.398264
0.39972
0.401099
0.402
0.402
0.402
0.402
0.402
0.402
0.402
0.402
0.402
0.402
0.402
0.402
0.402
0.402
0.402
0.402
0.402
0.402
0.402
0.3776
0.378976
0.380249
0.381384
0.382397
0.383306
0.384125
0.384869
0.385548
0.386172
0.38675
0.387289
0.387796
0.388276
0.388735
0.389176
0.389605
0.390027
0.390446
0.390869
0.391303
0.391759
0.392248
0.39279
0.393405
0.394124
0.394982
0.396021
0.397287
0.398761
0.400221
0.401716
0.402
0.402
0.402
0.402
0.402
0.402
0.402
0.402
0.402
0.402
0.402
0.402
0.402
0.402
0.402
0.402
0.402
0.402
0.376771
0.378126
0.379389
0.380517
0.381524
0.382427
0.383241
0.38398
0.384654
0.385275
0.38585
0.386386
0.38689
0.387368
0.387825
0.388264
0.388692
0.389111
0.389529
0.389949
0.390381
0.390835
0.391321
0.391859
0.392469
0.393182
0.394033
0.395061
0.396304
0.397795
0.399334
0.400835
0.401928
0.402
0.402
0.402
0.402
0.402
0.402
0.402
0.402
0.402
0.402
0.402
0.402
0.402
0.402
0.402
0.402
0.402
0.37597
0.377305
0.378558
0.379677
0.380677
0.381574
0.382383
0.383117
0.383787
0.384404
0.384975
0.385508
0.386009
0.386484
0.386938
0.387376
0.387801
0.388218
0.388633
0.389052
0.389481
0.38993
0.390413
0.390945
0.391549
0.392253
0.393093
0.394108
0.395327
0.396822
0.39837
0.399853
0.401037
0.402
0.402
0.402
0.402
0.402
0.402
0.402
0.402
0.402
0.402
0.402
0.402
0.402
0.402
0.402
0.402
0.402
0.375199
0.376515
0.377757
0.378868
0.379861
0.380751
0.381554
0.382282
0.382948
0.38356
0.384127
0.384657
0.385155
0.385627
0.386078
0.386513
0.386935
0.38735
0.387762
0.388178
0.388604
0.38905
0.389527
0.390053
0.390647
0.39134
0.392165
0.393163
0.394364
0.395812
0.397354
0.398878
0.400202
0.401839
0.402
0.402
0.402
0.402
0.402
0.402
0.402
0.402
0.402
0.402
0.402
0.402
0.402
0.402
0.402
0.402
0.374459
0.375756
0.376987
0.37809
0.379075
0.379958
0.380755
0.381478
0.382138
0.382745
0.383308
0.383834
0.384328
0.384797
0.385245
0.385677
0.386097
0.386509
0.386918
0.38733
0.387752
0.388194
0.388665
0.389183
0.389767
0.390445
0.391251
0.392226
0.393407
0.394785
0.396333
0.397908
0.399356
0.400779
0.40193
0.402
0.402
0.402
0.402
0.402
0.402
0.402
0.402
0.402
0.402
0.402
0.402
0.402
0.402
0.402
0.373749
0.375028
0.376249
0.377343
0.37832
0.379196
0.379986
0.380703
0.381357
0.38196
0.382518
0.383039
0.38353
0.383996
0.38444
0.384869
0.385286
0.385695
0.386101
0.386509
0.386927
0.387363
0.387828
0.388337
0.388909
0.38957
0.390354
0.391298
0.392446
0.393775
0.395327
0.396942
0.398494
0.399997
0.401103
0.402
0.402
0.402
0.402
0.402
0.402
0.402
0.402
0.402
0.402
0.402
0.402
0.402
0.402
0.402
0.37307
0.374332
0.375541
0.376627
0.377596
0.378465
0.379248
0.379958
0.380606
0.381203
0.381756
0.382273
0.38276
0.383222
0.383663
0.384089
0.384502
0.384908
0.38531
0.385715
0.386128
0.386558
0.387016
0.387515
0.388074
0.388717
0.389475
0.390386
0.391491
0.392789
0.394329
0.395947
0.39755
0.399078
0.400339
0.40179
0.402
0.402
0.402
0.402
0.402
0.402
0.402
0.402
0.402
0.402
0.402
0.402
0.402
0.402
0.37242
0.373667
0.374865
0.375941
0.376902
0.377762
0.378538
0.379241
0.379883
0.380474
0.381022
0.381535
0.382017
0.382475
0.382913
0.383335
0.383745
0.384147
0.384546
0.384946
0.385355
0.385778
0.386228
0.386717
0.387262
0.387885
0.388617
0.389491
0.390549
0.391817
0.393306
0.394914
0.396547
0.398123
0.39953
0.400612
0.401967
0.402
0.402
0.402
0.402
0.402
0.402
0.402
0.402
0.402
0.402
0.402
0.402
0.402
0.371798
0.37303
0.374217
0.375284
0.376236
0.377088
0.377856
0.378552
0.379188
0.379772
0.380315
0.380822
0.3813
0.381754
0.382188
0.382606
0.383013
0.383412
0.383807
0.384203
0.384606
0.385023
0.385465
0.385942
0.386473
0.387077
0.387781
0.388618
0.389626
0.390844
0.392288
0.39389
0.395543
0.397165
0.398684
0.399933
0.4013
0.402
0.402
0.402
0.402
0.402
0.402
0.402
0.402
0.402
0.402
0.402
0.402
0.402
0.371203
0.37242
0.373596
0.374654
0.375597
0.376441
0.3772
0.377889
0.378517
0.379096
0.379633
0.380134
0.380608
0.381057
0.381487
0.381902
0.382305
0.3827
0.383092
0.383483
0.383881
0.384292
0.384725
0.385191
0.385707
0.386291
0.386969
0.38777
0.388729
0.38989
0.391297
0.392878
0.394526
0.396178
0.397779
0.399245
0.400588
0.401824
0.402
0.402
0.402
0.402
0.402
0.402
0.402
0.402
0.402
0.402
0.402
0.402
0.370632
0.371836
0.373001
0.374049
0.374983
0.375818
0.37657
0.37725
0.377871
0.378443
0.378974
0.37947
0.379938
0.380383
0.38081
0.381221
0.38162
0.382012
0.382399
0.382787
0.383179
0.383583
0.384008
0.384463
0.384963
0.385527
0.386179
0.386947
0.387862
0.388965
0.390316
0.391847
0.393484
0.395152
0.396798
0.398369
0.399781
0.400844
0.402
0.402
0.402
0.402
0.402
0.402
0.402
0.402
0.402
0.402
0.402
0.402
0.370085
0.371277
0.372431
0.373469
0.374393
0.375219
0.375962
0.376634
0.377247
0.377812
0.378336
0.378827
0.379291
0.379731
0.380153
0.380561
0.380957
0.381345
0.381729
0.382112
0.382499
0.382897
0.383312
0.383756
0.384242
0.384786
0.385411
0.386145
0.387021
0.388073
0.38934
0.390826
0.392449
0.394122
0.395794
0.397421
0.398934
0.400157
0.401582
0.402
0.402
0.402
0.402
0.402
0.402
0.402
0.402
0.402
0.402
0.402
0.36956
0.370739
0.371882
0.37291
0.373825
0.374642
0.375375
0.376038
0.376644
0.377202
0.37772
0.378205
0.378663
0.379099
0.379517
0.379921
0.380314
0.380698
0.381078
0.381457
0.381839
0.382231
0.382638
0.383072
0.383542
0.384067
0.384666
0.385365
0.386198
0.3872
0.388399
0.389838
0.391426
0.393087
0.394771
0.396439
0.398038
0.399468
0.400868
0.401894
0.402
0.402
0.402
0.402
0.402
0.402
0.402
0.402
0.402
0.402
0.369054
0.370222
0.371355
0.372373
0.373277
0.374084
0.374807
0.375462
0.37606
0.37661
0.377121
0.377601
0.378054
0.378486
0.3789
0.3793
0.379689
0.38007
0.380446
0.380821
0.381199
0.381584
0.381984
0.382407
0.382864
0.38337
0.383944
0.38461
0.385398
0.386346
0.38749
0.388864
0.390414
0.392065
0.393755
0.395443
0.397091
0.398645
0.40006
0.401111
0.402
0.402
0.402
0.402
0.402
0.402
0.402
0.402
0.402
0.402
0.368567
0.369724
0.370846
0.371853
0.372748
0.373544
0.374258
0.374903
0.375492
0.376035
0.37654
0.377014
0.377462
0.377889
0.378299
0.378696
0.379082
0.37946
0.379832
0.380204
0.380577
0.380957
0.381349
0.381763
0.382207
0.382696
0.383246
0.383881
0.384627
0.385521
0.386606
0.387921
0.389433
0.391058
0.392741
0.394442
0.396121
0.397729
0.399217
0.400426
0.401779
0.402
0.402
0.402
0.402
0.402
0.402
0.402
0.402
0.402
0.368096
0.369243
0.370354
0.371351
0.372235
0.373021
0.373725
0.374361
0.374941
0.375476
0.375974
0.376442
0.376885
0.377308
0.377715
0.378108
0.378491
0.378865
0.379235
0.379602
0.379971
0.380346
0.380732
0.381136
0.381569
0.382042
0.382571
0.383178
0.383886
0.38473
0.385754
0.387015
0.388469
0.390057
0.391724
0.393426
0.395131
0.396794
0.398347
0.399701
0.400789
0.402
0.402
0.402
0.402
0.402
0.402
0.402
0.402
0.402
0.367641
0.368778
0.369879
0.370865
0.371737
0.372512
0.373206
0.373832
0.374404
0.374932
0.375423
0.375885
0.376324
0.376742
0.377145
0.377535
0.377914
0.378286
0.378653
0.379017
0.379382
0.379752
0.380131
0.380528
0.380949
0.381407
0.381917
0.382498
0.383174
0.383975
0.384941
0.386131
0.387526
0.389081
0.39073
0.392426
0.394135
0.395824
0.397453
0.398941
0.400127
0.401487
0.402
0.402
0.402
0.402
0.402
0.402
0.402
0.402
0.3672
0.368328
0.369417
0.370392
0.371254
0.372018
0.372701
0.373317
0.373881
0.3744
0.374885
0.375342
0.375775
0.376189
0.376589
0.376975
0.377352
0.377721
0.378085
0.378446
0.378807
0.379172
0.379546
0.379935
0.380346
0.380791
0.381283
0.38184
0.382485
0.383248
0.384164
0.385278
0.386617
0.388126
0.389745
0.391428
0.393141
0.394852
0.396513
0.39809
0.399506
0.400834
0.401885
0.402
0.402
0.402
0.402
0.402
0.402
0.402
0.366771
0.36789
0.368969
0.369932
0.370782
0.371535
0.372207
0.372814
0.373368
0.37388
0.374359
0.37481
0.375238
0.375649
0.376045
0.376428
0.376802
0.377169
0.37753
0.377888
0.378246
0.378607
0.378976
0.379358
0.37976
0.380192
0.380667
0.381202
0.381817
0.382542
0.383411
0.384464
0.385738
0.387197
0.388788
0.390454
0.39216
0.393878
0.395575
0.397203
0.398721
0.400103
0.401158
0.402
0.402
0.402
0.402
0.402
0.402
0.402
0.366353
0.367464
0.368532
0.369483
0.370322
0.371063
0.371724
0.372321
0.372867
0.373371
0.373843
0.374289
0.374713
0.37512
0.375512
0.375893
0.376264
0.376628
0.376987
0.377342
0.377697
0.378054
0.378419
0.378794
0.379188
0.37961
0.380069
0.380583
0.381171
0.381859
0.382682
0.383683
0.384895
0.386309
0.387862
0.389503
0.391198
0.392917
0.394623
0.396292
0.397885
0.399334
0.400506
0.401792
0.402
0.402
0.402
0.402
0.402
0.402
0.365946
0.367048
0.368105
0.369045
0.369871
0.3706
0.37125
0.371837
0.372374
0.372871
0.373337
0.373777
0.374197
0.3746
0.37499
0.375368
0.375737
0.376098
0.376455
0.376807
0.377159
0.377513
0.377873
0.378244
0.37863
0.379042
0.379488
0.379984
0.380547
0.381201
0.38198
0.382929
0.384091
0.385451
0.386959
0.388572
0.39025
0.391965
0.393688
0.395378
0.397013
0.398556
0.399852
0.400922
0.402
0.402
0.402
0.402
0.402
0.402
0.365549
0.366643
0.367688
0.368615
0.369429
0.370146
0.370785
0.371362
0.37189
0.37238
0.37284
0.373275
0.373691
0.374091
0.374477
0.374853
0.375219
0.375579
0.375932
0.376283
0.376632
0.376983
0.377339
0.377704
0.378085
0.378487
0.378922
0.379402
0.379943
0.380568
0.381308
0.382206
0.383317
0.38462
0.386088
0.387673
0.38933
0.391032
0.392749
0.394461
0.396131
0.397732
0.399171
0.400286
0.401667
0.402
0.402
0.402
0.402
0.402
0.36516
0.366246
0.36728
0.368194
0.368995
0.369699
0.370327
0.370894
0.371414
0.371897
0.372351
0.372782
0.373193
0.37359
0.373974
0.374347
0.374711
0.375068
0.37542
0.375768
0.376115
0.376463
0.376815
0.377176
0.37755
0.377945
0.378369
0.378835
0.379358
0.379958
0.380664
0.381516
0.38257
0.383823
0.385247
0.386792
0.388422
0.390109
0.391827
0.393541
0.395231
0.396876
0.39841
0.399725
0.400729
0.40199
0.402
0.402
0.402
0.402
0.364781
0.365858
0.36688
0.367781
0.368568
0.36926
0.369877
0.370434
0.370946
0.371422
0.37187
0.372296
0.372704
0.373098
0.373479
0.37385
0.374212
0.374567
0.374916
0.375262
0.375607
0.375952
0.376301
0.376658
0.377026
0.377414
0.377829
0.378282
0.378788
0.379367
0.380044
0.380857
0.381852
0.383052
0.384424
0.385933
0.38754
0.38921
0.390917
0.392638
0.394344
0.396011
0.397605
0.399066
0.400171
0.401465
0.402
0.402
0.402
0.402
0.364411
0.365479
0.366488
0.367375
0.368149
0.368828
0.369433
0.36998
0.370484
0.370953
0.371396
0.371818
0.372222
0.372613
0.372992
0.37336
0.37372
0.374073
0.374421
0.374765
0.375107
0.375449
0.375795
0.376148
0.376512
0.376893
0.377299
0.37774
0.378231
0.378789
0.379441
0.380219
0.381162
0.382306
0.383631
0.385107
0.386687
0.388337
0.390032
0.391743
0.393456
0.395146
0.39678
0.398313
0.399656
0.400891
0.401915
0.402
0.402
0.402
0.36405
0.365109
0.366105
0.366977
0.367736
0.368403
0.368996
0.369534
0.370029
0.370492
0.370929
0.371347
0.371748
0.372136
0.372512
0.372879
0.373237
0.373588
0.373933
0.374275
0.374615
0.374955
0.375298
0.375648
0.376007
0.376382
0.37678
0.37721
0.377686
0.378225
0.378851
0.379596
0.380498
0.38159
0.382873
0.384306
0.38585
0.387476
0.38916
0.390876
0.39259
0.394287
0.395951
0.397539
0.398982
0.400291
0.401306
0.402
0.402
0.402
0.363699
0.364749
0.365731
0.366588
0.367332
0.367984
0.368566
0.369094
0.369581
0.370038
0.37047
0.370884
0.371282
0.371667
0.372041
0.372406
0.372762
0.373111
0.373454
0.373794
0.374132
0.37447
0.37481
0.375156
0.375512
0.375882
0.376272
0.376693
0.377155
0.377675
0.378276
0.378989
0.379854
0.380901
0.382138
0.383529
0.385044
0.386649
0.388315
0.390019
0.391741
0.393447
0.395131
0.396747
0.398273
0.399641
0.400752
0.401854
0.402
0.402
0.36336
0.3644
0.365366
0.366207
0.366936
0.367574
0.368144
0.368662
0.369142
0.369592
0.37002
0.37043
0.370825
0.371208
0.37158
0.371942
0.372296
0.372643
0.372985
0.373322
0.373658
0.373993
0.374331
0.374674
0.375026
0.375392
0.375776
0.376188
0.376638
0.377141
0.377719
0.378402
0.379231
0.38024
0.38143
0.382783
0.384269
0.385848
0.387494
0.389182
0.39089
0.392609
0.394305
0.39596
0.397531
0.39896
0.400214
0.4012
0.402
0.402
0.363031
0.36406
0.365011
0.365835
0.366547
0.367172
0.367729
0.368238
0.36871
0.369154
0.369578
0.369984
0.370377
0.370757
0.371127
0.371487
0.371839
0.372184
0.372524
0.37286
0.373193
0.373526
0.373862
0.374202
0.37455
0.374912
0.375291
0.375695
0.376135
0.376623
0.37718
0.377836
0.378629
0.379601
0.38075
0.382067
0.383513
0.385059
0.386682
0.388362
0.39007
0.39178
0.393494
0.395164
0.396778
0.398283
0.399611
0.400678
0.401869
0.402
0.362714
0.363731
0.364665
0.365471
0.366166
0.366776
0.367322
0.367821
0.368285
0.368724
0.369144
0.369547
0.369936
0.370314
0.370682
0.37104
0.37139
0.371733
0.372071
0.372405
0.372736
0.373067
0.3734
0.373737
0.374083
0.374441
0.374815
0.375213
0.375644
0.376119
0.376658
0.377288
0.378049
0.378983
0.380094
0.38137
0.382778
0.384296
0.385897
0.387558
0.38926
0.390978
0.392687
0.394387
0.396031
0.397579
0.398974
0.400196
0.401144
0.402
0.362408
0.363413
0.364328
0.365115
0.365793
0.366388
0.366922
0.367411
0.367869
0.368302
0.368717
0.369117
0.369504
0.369879
0.370245
0.370601
0.370949
0.37129
0.371626
0.371958
0.372287
0.372615
0.372946
0.373281
0.373624
0.373978
0.374348
0.37474
0.375163
0.375628
0.376151
0.376758
0.377488
0.378385
0.379459
0.380692
0.382066
0.383559
0.385139
0.386779
0.388458
0.390168
0.391886
0.393591
0.395263
0.396864
0.398335
0.399646
0.400099
0.401942
0.362116
0.363107
0.364002
0.364769
0.365429
0.366008
0.36653
0.36701
0.36746
0.367888
0.368299
0.368696
0.36908
0.369453
0.369816
0.37017
0.370516
0.370856
0.371189
0.371519
0.371845
0.372172
0.3725
0.372832
0.373172
0.373523
0.373889
0.374277
0.374693
0.375149
0.375659
0.376246
0.376948
0.377808
0.378843
0.380036
0.381377
0.382836
0.384386
0.386006
0.387676
0.389369
0.391085
0.392795
0.394491
0.396128
0.397662
0.399037
0.399725
0.401283
0.361842
0.362817
0.363691
0.364436
0.365076
0.36564
0.366149
0.36662
0.367063
0.367486
0.367893
0.368287
0.368668
0.369039
0.369399
0.369751
0.370095
0.370432
0.370764
0.371091
0.371415
0.371739
0.372065
0.372395
0.372732
0.37308
0.373442
0.373825
0.374236
0.374684
0.375183
0.375754
0.37643
0.377255
0.378249
0.379404
0.380708
0.38213
0.383648
0.385245
0.386903
0.388597
0.3903
0.392017
0.393713
0.395379
0.396971
0.398415
0.399462
0.400273
0.361584
0.362542
0.363393
0.364115
0.364736
0.365284
0.36578
0.366242
0.366678
0.367096
0.367499
0.367889
0.368268
0.368636
0.368994
0.369344
0.369685
0.37002
0.370349
0.370674
0.370996
0.371317
0.371641
0.371968
0.372302
0.372647
0.373006
0.373385
0.37379
0.374231
0.374721
0.375279
0.375933
0.376724
0.377677
0.378794
0.380058
0.381447
0.382942
0.384518
0.386154
0.387835
0.38954
0.391246
0.392954
0.394636
0.396263
0.397786
0.399077
0.399938
0.361344
0.362283
0.36311
0.363808
0.364408
0.364939
0.365423
0.365875
0.366305
0.366718
0.367116
0.367503
0.367878
0.368244
0.368599
0.368946
0.369285
0.369617
0.369944
0.370266
0.370586
0.370905
0.371225
0.37155
0.371881
0.372223
0.372578
0.372953
0.373353
0.373787
0.374268
0.374814
0.37545
0.376211
0.377124
0.378202
0.379429
0.38079
0.382263
0.383817
0.385432
0.387088
0.388781
0.39049
0.392197
0.393884
0.395537
0.397121
0.398541
0.399678
0.361124
0.362043
0.362843
0.363516
0.364094
0.364608
0.36508
0.365523
0.365946
0.366353
0.366747
0.36713
0.367502
0.367864
0.368217
0.368561
0.368897
0.369226
0.36955
0.369869
0.370186
0.370502
0.37082
0.371141
0.37147
0.371808
0.37216
0.372531
0.372926
0.373354
0.373826
0.374359
0.374978
0.375714
0.376594
0.377635
0.378828
0.380158
0.381596
0.383123
0.384721
0.386369
0.388043
0.389747
0.391448
0.393151
0.394821
0.396439
0.397944
0.399269
0.360929
0.361825
0.362596
0.363242
0.363798
0.364296
0.364754
0.365188
0.365604
0.366005
0.366394
0.366773
0.367141
0.367499
0.367849
0.368189
0.368522
0.368848
0.369169
0.369485
0.369799
0.370112
0.370426
0.370744
0.37107
0.371405
0.371754
0.37212
0.372511
0.372932
0.373395
0.373916
0.374519
0.375232
0.376085
0.377092
0.37825
0.379544
0.380948
0.382445
0.384022
0.38566
0.387334
0.389023
0.390731
0.392427
0.394102
0.395743
0.39732
0.39878
0.360762
0.361634
0.362375
0.362993
0.363527
0.364007
0.364453
0.364877
0.365285
0.36568
0.366065
0.366438
0.366802
0.367156
0.367502
0.367838
0.368168
0.36849
0.368807
0.36912
0.36943
0.36974
0.37005
0.370365
0.370687
0.371019
0.371364
0.371727
0.372113
0.372528
0.372984
0.373494
0.37408
0.374773
0.375599
0.376573
0.377698
0.378956
0.38033
0.381803
0.383357
0.384973
0.386637
0.388323
0.390022
0.391718
0.393407
0.395066
0.396677
0.398269
0.360621
0.361467
0.362177
0.362766
0.363277
0.36374
0.364173
0.364588
0.364988
0.365377
0.365756
0.366124
0.366483
0.366833
0.367173
0.367506
0.367831
0.368149
0.368462
0.368771
0.369077
0.369383
0.36969
0.370001
0.370319
0.370646
0.370987
0.371346
0.371728
0.372138
0.372586
0.373086
0.373658
0.374331
0.375133
0.376076
0.377168
0.378393
0.37974
0.381191
0.382723
0.384314
0.385955
0.387635
0.389325
0.39103
0.39272
0.394388
0.396028
0.397696
0.36051
0.361329
0.362005
0.362565
0.363053
0.363499
0.363919
0.364324
0.364716
0.365098
0.36547
0.365833
0.366186
0.366531
0.366866
0.367194
0.367514
0.367828
0.368136
0.368441
0.368743
0.369044
0.369346
0.369653
0.369966
0.370289
0.370626
0.37098
0.371357
0.371762
0.372204
0.372694
0.373253
0.373907
0.374685
0.375601
0.37666
0.377853
0.37917
0.38059
0.382096
0.38367
0.385292
0.386955
0.388647
0.390342
0.392031
0.393708
0.395371
0.397099
0.360433
0.361221
0.361863
0.362393
0.362858
0.363287
0.363694
0.364089
0.364473
0.364847
0.365213
0.365569
0.365916
0.366254
0.366584
0.366906
0.367221
0.36753
0.367833
0.368132
0.368429
0.368725
0.369023
0.369324
0.369633
0.369951
0.370282
0.370632
0.371003
0.371403
0.371837
0.372319
0.372865
0.373501
0.374257
0.375147
0.376174
0.377333
0.378615
0.38
0.381477
0.383032
0.384647
0.386295
0.387977
0.389667
0.391367
0.393056
0.394727
0.396484
0.360394
0.361151
0.361758
0.362259
0.362701
0.363112
0.363507
0.363891
0.364267
0.364633
0.364991
0.36534
0.365681
0.366013
0.366336
0.366652
0.366961
0.367264
0.367562
0.367855
0.368147
0.368437
0.36873
0.369025
0.369328
0.36964
0.369966
0.37031
0.370676
0.371069
0.371497
0.37197
0.372504
0.373123
0.373856
0.37472
0.375715
0.376843
0.37809
0.379443
0.380892
0.382423
0.384023
0.385667
0.387335
0.389028
0.390723
0.392411
0.394099
0.395876
0.360387
0.361113
0.361684
0.362155
0.362575
0.362971
0.363353
0.363727
0.364093
0.364451
0.364801
0.365143
0.365476
0.365801
0.366118
0.366428
0.36673
0.367027
0.367318
0.367606
0.367891
0.368176
0.368462
0.368752
0.369048
0.369354
0.369674
0.370011
0.37037
0.370757
0.371178
0.371642
0.372164
0.372767
0.373478
0.374315
0.37528
0.376375
0.377589
0.378913
0.380336
0.381842
0.383418
0.385049
0.38671
0.388397
0.390087
0.39178
0.393479
0.395286
0.360413
0.361107
0.361643
0.362085
0.362484
0.362863
0.363234
0.363597
0.363954
0.364304
0.364645
0.364979
0.365305
0.365622
0.365932
0.366234
0.36653
0.36682
0.367105
0.367386
0.367665
0.367943
0.368223
0.368506
0.368795
0.369095
0.369407
0.369737
0.370089
0.370469
0.370882
0.371337
0.371848
0.372434
0.373123
0.373933
0.374868
0.37593
0.377111
0.378405
0.379802
0.381283
0.382832
0.384441
0.386095
0.38777
0.389462
0.391166
0.392871
0.394685
0.360479
0.36114
0.361641
0.362054
0.362432
0.362797
0.363155
0.363508
0.363855
0.364196
0.364529
0.364855
0.365172
0.365482
0.365784
0.366079
0.366368
0.366651
0.366929
0.367203
0.367475
0.367746
0.368019
0.368295
0.368577
0.368869
0.369174
0.369496
0.36984
0.370211
0.370615
0.371061
0.37156
0.37213
0.372797
0.373579
0.374484
0.375512
0.376659
0.377922
0.379286
0.380739
0.382266
0.383852
0.385491
0.387159
0.388852
0.39055
0.392263
0.394092
0.360579
0.361207
0.361673
0.36206
0.362418
0.362768
0.363115
0.363458
0.363796
0.364128
0.364453
0.36477
0.36508
0.365381
0.365676
0.365963
0.366245
0.36652
0.366791
0.367058
0.367323
0.367587
0.367853
0.368122
0.368396
0.36868
0.368977
0.369291
0.369626
0.369988
0.370383
0.370818
0.371305
0.371859
0.372504
0.373258
0.374132
0.375127
0.376241
0.377468
0.378796
0.380218
0.381724
0.383296
0.384916
0.38658
0.388262
0.389957
0.391674
0.393519
0.360708
0.361303
0.361735
0.362096
0.362437
0.362773
0.363109
0.363442
0.363771
0.364094
0.36441
0.364719
0.365021
0.365315
0.365601
0.365881
0.366155
0.366423
0.366687
0.366947
0.367205
0.367462
0.36772
0.367981
0.368248
0.368524
0.368813
0.369117
0.369443
0.369795
0.37018
0.370604
0.371078
0.371616
0.372238
0.372964
0.373806
0.374768
0.375849
0.37704
0.378333
0.379723
0.381201
0.382754
0.384359
0.38601
0.387687
0.389388
0.39111
0.392955
0.360868
0.361429
0.361829
0.362165
0.362488
0.362812
0.363137
0.363461
0.363781
0.364095
0.364403
0.364704
0.364997
0.365283
0.365562
0.365835
0.366101
0.366362
0.366618
0.366871
0.367122
0.367372
0.367622
0.367876
0.368136
0.368403
0.368683
0.368979
0.369295
0.369636
0.37001
0.370422
0.370882
0.371404
0.372003
0.372701
0.37351
0.374438
0.375483
0.376639
0.377899
0.379256
0.380703
0.382229
0.383819
0.385453
0.387127
0.388825
0.390549
0.392399
0.361059
0.361588
0.361956
0.362269
0.362576
0.362888
0.363203
0.363518
0.363829
0.364135
0.364435
0.364728
0.365013
0.365292
0.365563
0.365829
0.366088
0.366341
0.366591
0.366837
0.36708
0.367323
0.367566
0.367813
0.368064
0.368324
0.368596
0.368882
0.369189
0.36952
0.369882
0.370282
0.370728
0.371231
0.371809
0.372479
0.373257
0.37415
0.375159
0.376279
0.377505
0.378829
0.380242
0.381737
0.383304
0.384922
0.386587
0.388277
0.390001
0.391862
0.36127
0.361766
0.362104
0.362396
0.362689
0.36299
0.363295
0.363601
0.363904
0.364202
0.364494
0.364779
0.365058
0.365329
0.365593
0.365851
0.366103
0.36635
0.366593
0.366832
0.367068
0.367304
0.367541
0.36778
0.368024
0.368276
0.368539
0.368817
0.369114
0.369435
0.369786
0.370173
0.370604
0.371091
0.371646
0.37229
0.373036
0.373894
0.374866
0.375949
0.377139
0.378428
0.379807
0.381267
0.382803
0.384405
0.386053
0.387738
0.389463
0.391325
0.361504
0.361968
0.362276
0.362548
0.362827
0.363117
0.363414
0.363712
0.364007
0.364297
0.364582
0.364859
0.36513
0.365394
0.365652
0.365903
0.366148
0.366388
0.366624
0.366857
0.367087
0.367316
0.367546
0.367778
0.368015
0.36826
0.368515
0.368784
0.369072
0.369383
0.369722
0.370097
0.370514
0.370983
0.371518
0.372135
0.372849
0.373671
0.374606
0.375651
0.376801
0.37805
0.379392
0.380819
0.382323
0.383899
0.385529
0.38721
0.388936
0.390793
0.361761
0.362193
0.362473
0.362727
0.362993
0.363274
0.363562
0.363852
0.36414
0.364423
0.3647
0.36497
0.365234
0.365492
0.365742
0.365987
0.366226
0.36646
0.36669
0.366916
0.36714
0.367363
0.367586
0.367812
0.368042
0.368279
0.368526
0.368787
0.369066
0.369368
0.369697
0.37006
0.370463
0.370917
0.371431
0.372021
0.372705
0.373492
0.374388
0.375393
0.376503
0.377711
0.379014
0.380406
0.381878
0.383425
0.385036
0.386703
0.38842
0.39028
0.362031
0.362431
0.362684
0.362921
0.363176
0.363447
0.363728
0.36401
0.36429
0.364566
0.364836
0.3651
0.365357
0.365608
0.365853
0.366091
0.366324
0.366552
0.366775
0.366996
0.367214
0.36743
0.367648
0.367867
0.368091
0.368321
0.368561
0.368815
0.369085
0.369377
0.369696
0.370048
0.370438
0.370876
0.371372
0.371938
0.372591
0.373343
0.374201
0.375166
0.376234
0.377401
0.378662
0.380015
0.381452
0.382965
0.384553
0.3862
0.387907
0.389764
0.362324
0.362692
0.362919
0.36314
0.363385
0.363648
0.36392
0.364195
0.364469
0.364738
0.365002
0.365259
0.36551
0.365755
0.365993
0.366225
0.366452
0.366675
0.366893
0.367107
0.36732
0.367531
0.367742
0.367956
0.368173
0.368397
0.36863
0.368877
0.369139
0.369423
0.369732
0.370073
0.370452
0.370876
0.371354
0.371898
0.372523
0.373241
0.374062
0.374987
0.376014
0.377139
0.378358
0.379667
0.381063
0.382541
0.384097
0.385723
0.38742
0.38927
0.362621
0.362958
0.363161
0.363367
0.363602
0.363857
0.364123
0.364391
0.364657
0.36492
0.365177
0.365429
0.365674
0.365912
0.366145
0.366372
0.366593
0.36681
0.367022
0.367232
0.367438
0.367644
0.36785
0.368058
0.36827
0.368488
0.368715
0.368954
0.369209
0.369484
0.369785
0.370116
0.370484
0.370894
0.371356
0.371881
0.37248
0.373167
0.373952
0.374837
0.375823
0.376906
0.378081
0.379344
0.380696
0.382133
0.383652
0.385252
0.386935
0.388775
0.36294
0.363244
0.363425
0.363617
0.363843
0.364091
0.364349
0.364611
0.364871
0.365127
0.365378
0.365623
0.365862
0.366095
0.366322
0.366544
0.36676
0.366971
0.367178
0.367382
0.367584
0.367785
0.367985
0.368188
0.368394
0.368606
0.368827
0.36906
0.369308
0.369576
0.369868
0.370189
0.370546
0.370945
0.371393
0.371899
0.372475
0.373133
0.373884
0.374731
0.375675
0.376713
0.377844
0.379062
0.380365
0.381757
0.383233
0.3848
0.386457
0.388283
0.36326
0.363534
0.363693
0.363873
0.364091
0.364331
0.364583
0.364838
0.365092
0.365342
0.365587
0.365827
0.36606
0.366288
0.366509
0.366725
0.366936
0.367142
0.367345
0.367544
0.367741
0.367936
0.368132
0.368329
0.36853
0.368737
0.368952
0.369178
0.36942
0.36968
0.369965
0.370277
0.370625
0.371012
0.371447
0.371937
0.372493
0.373125
0.373845
0.374656
0.37556
0.376555
0.37764
0.378812
0.380068
0.381411
0.382843
0.384366
0.38599
0.387795
0.363588
0.363831
0.36397
0.364139
0.364348
0.364582
0.364827
0.365076
0.365324
0.365568
0.365808
0.366042
0.366269
0.366492
0.366708
0.366919
0.367125
0.367326
0.367524
0.367718
0.36791
0.368101
0.368291
0.368484
0.36868
0.368881
0.36909
0.369311
0.369546
0.3698
0.370076
0.370381
0.370718
0.371095
0.371518
0.371994
0.372531
0.373141
0.373832
0.37461
0.375476
0.376429
0.377468
0.378592
0.3798
0.381091
0.382473
0.383949
0.385534
0.387312
0.363934
0.364146
0.364266
0.364425
0.364627
0.364855
0.365094
0.365336
0.365578
0.365817
0.366051
0.366279
0.366502
0.366719
0.36693
0.367136
0.367337
0.367534
0.367727
0.367917
0.368104
0.36829
0.368477
0.368664
0.368855
0.369051
0.369256
0.369471
0.3697
0.369947
0.370216
0.370513
0.370841
0.371209
0.37162
0.372083
0.372605
0.373195
0.373861
0.374609
0.37544
0.376354
0.37735
0.378426
0.379584
0.380824
0.382152
0.383577
0.385118
0.386861
0.364276
0.364457
0.36456
0.36471
0.364906
0.365127
0.36536
0.365597
0.365833
0.366066
0.366294
0.366518
0.366735
0.366947
0.367153
0.367355
0.367551
0.367743
0.367932
0.368117
0.3683
0.368482
0.368663
0.368846
0.369033
0.369224
0.369423
0.369633
0.369856
0.370097
0.370359
0.370648
0.370969
0.371326
0.371727
0.372178
0.372685
0.373257
0.373902
0.374623
0.375423
0.3763
0.377255
0.378286
0.379394
0.380583
0.381856
0.383225
0.384713
0.386413
0.364627
0.364777
0.364865
0.365007
0.365196
0.36541
0.365638
0.365869
0.3661
0.366327
0.36655
0.366768
0.366981
0.367188
0.367389
0.367586
0.367778
0.367965
0.368149
0.36833
0.368509
0.368686
0.368864
0.369042
0.369224
0.369411
0.369605
0.369809
0.370027
0.370261
0.370517
0.370799
0.371111
0.37146
0.37185
0.372289
0.372784
0.37334
0.373965
0.374663
0.375434
0.376278
0.377194
0.378182
0.379242
0.380378
0.381596
0.382906
0.384333
0.38598
0.364982
0.365103
0.365176
0.365311
0.365493
0.365703
0.365924
0.36615
0.366375
0.366597
0.366815
0.367028
0.367236
0.367438
0.367635
0.367827
0.368014
0.368198
0.368377
0.368554
0.368728
0.368902
0.369075
0.369249
0.369426
0.369609
0.369798
0.369997
0.370209
0.370438
0.370687
0.370961
0.371266
0.371606
0.371987
0.372415
0.372897
0.373438
0.374046
0.374723
0.375469
0.376283
0.377165
0.378113
0.379128
0.380214
0.381376
0.382626
0.38399
0.385576
0.365335
0.365428
0.365488
0.365615
0.365792
0.365996
0.366212
0.366432