# Region type : patch top
# Faces       : 50
# Area        : 1.019804e+01
# Scale factor: 1.000000e+00
# Time        	average(U)
1314000       	-1.810759e-08
1971000       	-1.796503e-08
2628000       	-1.797079e-08
