# Region type : patch top
# Faces       : 50
# Area        : 1.019804e+01
# Scale factor: 1.000000e+00
# Time        	average(U)
657000        	-1.618246e-08
1314000       	-1.667530e-08
1971000       	-1.645193e-08
2628000       	-1.624669e-08
