# Region type : patch top
# Faces       : 50
# Area        : 1.019804e+01
# Scale factor: 1.000000e+00
# Time        	average(U)
1314009       	-2.888444e-09
1971000       	-1.850831e-08
2628000       	-8.216455e-09
