# Region type : patch top
# Faces       : 50
# Area        : 1.019804e+01
# Scale factor: 1.000000e+00
# Time        	average(U)
1314000       	-1.667529e-08
1971000       	-1.645192e-08
2628000       	-1.624668e-08
