/*--------------------------------*- C++ -*----------------------------------*\
| =========                 |                                                 |
| \\      /  F ield         | OpenFOAM: The Open Source CFD Toolbox           |
|  \\    /   O peration     | Version:  v1912                                 |
|   \\  /    A nd           | Website:  www.openfoam.com                      |
|    \\/     M anipulation  |                                                 |
\*---------------------------------------------------------------------------*/
FoamFile
{
    version     2.0;
    format      ascii;
    class       volScalarField;
    location    "31536000";
    object      psi;
}
// * * * * * * * * * * * * * * * * * * * * * * * * * * * * * * * * * * * * * //

dimensions      [0 1 0 0 0 0 0];


internalField   nonuniform List<scalar> 
4250
(
-158
-158.228
-158.033
-158
-158
-158
-158
-158
-158
-158
-158
-158
-158
-158
-158
-158
-158
-158
-158
-158
-158
-158
-158
-158
-158
-158
-158
-158
-158
-157.989
-157.998
-1.21348
-1.43637
-1.03432
-0.597005
-0.272811
-0.0473298
0.0908124
0.176026
0.254899
0.331333
0.406215
0.479982
0.552837
0.624958
0.696511
0.767578
0.838104
0.907739
0.974753
-158
-158.403
-158.058
-158.011
-158.005
-158.002
-158.001
-158
-158
-158
-158
-158
-158
-158
-158
-158
-158
-158
-158
-158
-158
-158
-158
-158
-158
-158
-158
-158
-158
-134.606
-157.993
-2.91457
-1.48816
-1.06784
-0.628379
-0.301654
-0.0739415
0.0666257
0.152634
0.231563
0.30803
0.382935
0.456722
0.529593
0.601725
0.673289
0.744368
0.814913
0.884603
0.952038
-157.952
-158.725
-158.101
-158.024
-158.009
-158.003
-158.001
-158
-158
-158
-158
-158
-158
-158
-158
-158
-158
-158
-158
-158
-158
-158
-158
-158
-158
-158
-158
-158
-157.999
-75.0266
-144.801
-4.41108
-1.56124
-1.10363
-0.660535
-0.331038
-0.100888
0.0427255
0.129745
0.208691
0.28518
0.360104
0.433907
0.506792
0.578934
0.650507
0.721598
0.792165
0.861918
0.929727
-87.8732
-158.308
-158.187
-158.049
-158.013
-158.004
-158.001
-158.001
-158
-158
-158
-158
-158
-158
-158
-158
-158
-158
-158
-158
-158
-158
-158
-158
-158
-158
-158
-158
-157.999
-58.1039
-47.4638
-5.21608
-1.64647
-1.1417
-0.69344
-0.360896
-0.128289
0.019049
0.107352
0.186276
0.262775
0.337712
0.41153
0.484425
0.556576
0.628157
0.699259
0.76985
0.839671
0.907815
-65.0151
-157.972
-158.34
-158.104
-158.021
-158.004
-158.002
-158.001
-158
-158
-158
-158
-158
-158
-158
-158
-158
-158
-158
-158
-158
-158
-158
-158
-158
-158
-158
-158
-157.996
-49.7475
-34.3657
-5.4134
-1.73603
-1.18188
-0.727061
-0.39117
-0.156191
-0.00822415
0.0854149
0.164307
0.240807
0.315751
0.38958
0.462485
0.534642
0.606229
0.677343
0.747959
0.817851
0.886296
-52.6602
-113.372
-157.992
-158.186
-158.048
-158.003
-158.001
-158
-158
-158
-158
-158
-158
-158
-158
-158
-158
-158
-158
-158
-158
-158
-158
-158
-158
-158
-158
-157.981
-151.292
-44.4952
-27.9231
-5.51895
-1.82598
-1.22394
-0.761363
-0.421811
-0.184339
-0.0331616
0.0637562
0.142773
0.219265
0.294212
0.36805
0.440963
0.513124
0.584716
0.655842
0.726483
0.796446
0.865164
-45.1425
-81.3322
-142.13
-157.997
-158.105
-158.004
-158.002
-158
-158
-158
-158
-158
-158
-158
-158
-158
-158
-158
-158
-158
-158
-158
-158
-158
-158
-158
-158
-126.366
-105.152
-40.6309
-24.1718
-5.58823
-1.91573
-1.26766
-0.796311
-0.452777
-0.212661
-0.0579473
0.0423235
0.121663
0.198142
0.273086
0.346932
0.41985
0.492013
0.56361
0.634746
0.705413
0.775448
0.844413
-40.1145
-64.3586
-103.14
-151.692
-157.997
-158.025
-158.005
-158
-158
-158
-158
-158
-158
-158
-158
-158
-158
-158
-158
-158
-158
-158
-158
-158
-158
-157.991
-157.981
-100.981
-81.5873
-37.4557
-21.7175
-5.64329
-2.0051
-1.31286
-0.831869
-0.484034
-0.241112
-0.082942
0.0210832
0.100968
0.177428
0.252365
0.326216
0.399139
0.471301
0.542901
0.614048
0.684741
0.754847
0.824036
-36.4991
-54.1626
-80.5207
-115.67
-150.724
-157.991
-157.999
-158.002
-158
-158
-158
-158
-158
-158
-158
-158
-158
-158
-158
-158
-158
-158
-158
-158
-157.999
-141.972
-128.843
-84.8386
-67.8087
-34.8537
-19.9828
-5.69389
-2.09407
-1.35936
-0.867999
-0.515551
-0.269657
-0.108215
1.00185e-05
0.0806783
0.157116
0.232041
0.305896
0.378821
0.450981
0.522583
0.593739
0.664458
0.734632
0.804026
-33.7668
-47.3662
-66.8398
-91.6746
-119.303
-141.779
-155.218
-157.985
-157.989
-157.991
-157.992
-157.992
-157.993
-157.993
-157.994
-157.994
-157.995
-157.995
-157.996
-157.996
-157.996
-157.996
-157.995
-157.991
-155.586
-117.446
-104.991
-73.7331
-58.7759
-32.7052
-18.6906
-5.74456
-2.18266
-1.40704
-0.904666
-0.547298
-0.298267
-0.133727
-0.0279845
0.0607227
0.137197
0.212106
0.285963
0.358888
0.431045
0.502647
0.573812
0.644556
0.714797
0.784378
-31.6264
-42.5073
-57.7417
-76.436
-96.9793
-114.952
-127.445
-135.257
-139.747
-142.332
-143.87
-144.852
-145.578
-146.211
-146.852
-147.546
-148.309
-149.117
-149.907
-150.551
-150.832
-150.372
-148.426
-143.114
-129.139
-99.8205
-88.9504
-65.6516
-52.3965
-30.9126
-17.6923
-5.79746
-2.27092
-1.45578
-0.941832
-0.57925
-0.326916
-0.159205
-0.049773
0.0409551
0.11766
0.192551
0.266409
0.339334
0.411485
0.483086
0.554259
0.625028
0.695333
0.765085
-29.9032
-38.8595
-51.259
-66.0757
-82.0407
-96.0726
-106.115
-112.611
-116.569
-118.927
-120.352
-121.268
-121.942
-122.525
-123.11
-123.741
-124.436
-125.175
-125.9
-126.493
-126.75
-126.316
-124.516
-119.768
-108.511
-87.1742
-77.7236
-59.5237
-47.6532
-29.4015
-16.9006
-5.85355
-2.35893
-1.50546
-0.97946
-0.611382
-0.355585
-0.184681
-0.0716708
0.021389
0.098497
0.17337
0.247227
0.32015
0.392294
0.463892
0.535073
0.605865
0.676232
0.74614
-28.4859
-36.0209
-46.4078
-58.605
-71.5382
-82.9046
-91.1384
-96.5089
-99.8085
-101.787
-102.985
-103.753
-104.311
-104.788
-105.261
-105.768
-106.323
-106.911
-107.487
-107.958
-108.158
-107.802
-106.347
-102.567
-93.8394
-77.7735
-69.4858
-54.727
-43.9911
-28.1158
-16.2612
-5.91316
-2.44672
-1.556
-1.01752
-0.64367
-0.384257
-0.210132
-0.0937404
0.00200384
0.0797003
0.154554
0.228409
0.301329
0.373465
0.445059
0.516247
0.587061
0.657486
0.727538
-27.3
-33.7507
-42.644
-52.973
-63.7946
-73.3111
-80.2668
-84.8312
-87.6482
-89.342
-90.368
-91.0231
-91.4947
-91.892
-92.2807
-92.6939
-93.1436
-93.6195
-94.0845
-94.4629
-94.6202
-94.323
-93.1285
-90.0608
-83.1003
-70.547
-63.2023
-50.8767
-41.0815
-27.0126
-15.7377
-5.97631
-2.53433
-1.60731
-1.05596
-0.676093
-0.412914
-0.235534
-0.115948
-0.0229021
0.0612139
0.136096
0.209949
0.282865
0.35499
0.426579
0.497772
0.568608
0.639087
0.709271
-26.2939
-31.8955
-39.6421
-48.5809
-57.8652
-66.0415
-72.0656
-76.0421
-78.5069
-79.9929
-80.893
-81.4656
-81.8736
-82.2131
-82.5411
-82.887
-83.2616
-83.6568
-84.0421
-84.3545
-84.4815
-84.2268
-83.2201
-80.6627
-74.9514
-64.8339
-58.2599
-47.7228
-38.7167
-26.0592
-15.3051
-6.04283
-2.62181
-1.65932
-1.09476
-0.708628
-0.441543
-0.260869
-0.138101
-0.0426059
0.0429236
0.117987
0.191839
0.26475
0.336862
0.408445
0.479643
0.550499
0.62103
0.691335
-25.4304
-30.3531
-37.1953
-45.0644
-53.1879
-60.3561
-65.6772
-69.2111
-71.4114
-72.7414
-73.5471
-74.0579
-74.4186
-74.715
-74.9981
-75.2944
-75.6138
-75.9499
-76.2768
-76.5409
-76.6458
-76.4228
-75.555
-73.3734
-68.5758
-60.2127
-54.276
-45.096
-36.7593
-25.2301
-14.9452
-6.11249
-2.70915
-1.71196
-1.13388
-0.741252
-0.470128
-0.286123
-0.160222
-0.0622939
0.0248378
0.100218
0.174072
0.246978
0.319075
0.390651
0.461853
0.532727
0.603307
0.673722
-24.6822
-29.0525
-35.1657
-42.189
-49.4099
-55.7963
-60.5709
-63.7616
-65.7573
-66.9669
-67.6999
-68.1632
-68.4875
-68.7511
-69
-69.2586
-69.5361
-69.8275
-70.1103
-70.338
-70.4264
-70.2278
-69.4659
-67.5699
-63.4617
-56.4035
-51.0002
-42.8778
-35.1146
-24.505
-14.6443
-6.18502
-2.79638
-1.76516
-1.17329
-0.773946
-0.498656
-0.311282
-0.182289
-0.0820297
0.0069393
0.0827838
0.156641
0.229541
0.301622
0.373189
0.444394
0.515286
0.585911
0.656428
-24.0286
-27.9426
-33.4576
-39.7974
-46.2991
-52.0637
-56.4028
-59.3207
-61.1543
-62.2688
-62.9444
-63.3702
-63.666
-63.9038
-64.126
-64.3552
-64.6001
-64.8567
-65.1053
-65.3048
-65.3806
-65.2012
-64.5224
-62.8493
-59.2754
-53.2142
-48.2624
-40.9826
-33.7152
-23.8679
-14.3922
-6.26011
-2.88349
-1.81885
-1.21295
-0.806688
-0.527113
-0.336333
-0.204282
-0.101797
-0.0147507
0.0656447
0.13954
0.212433
0.284497
0.356053
0.427261
0.498169
0.568836
0.639445
-23.4536
-26.986
-32.0027
-37.7797
-43.6967
-48.9565
-52.9416
-55.6381
-57.3405
-58.3782
-59.0076
-59.4032
-59.6761
-59.8932
-60.0941
-60.2998
-60.5188
-60.7477
-60.9691
-61.1463
-61.2121
-61.0483
-60.4362
-58.9412
-55.7908
-50.5089
-45.9429
-39.3473
-32.512
-23.3058
-14.1807
-6.33747
-2.97048
-1.87298
-1.25282
-0.839456
-0.555486
-0.361265
-0.226184
-0.121471
-0.0327334
0.0487114
0.122761
0.195648
0.267692
0.339237
0.410447
0.48137
0.552075
0.622769
-22.9449
-26.1546
-30.7506
-36.0573
-41.4906
-46.3335
-50.0257
-52.5394
-54.1339
-55.1084
-55.6999
-56.0709
-56.325
-56.5253
-56.7088
-56.8954
-57.0934
-57.2998
-57.4992
-57.6583
-57.7162
-57.5652
-57.0077
-55.6579
-52.8493
-48.1883
-43.9551
-37.924
-31.4681
-22.808
-14.0033
-6.41683
-3.05731
-1.92749
-1.29287
-0.87223
-0.58376
-0.386067
-0.247981
-0.14106
-0.0505727
0.0319818
0.106296
0.17918
0.251202
0.322735
0.393946
0.464882
0.535623
0.606394
-22.4924
-25.4266
-29.6636
-34.5719
-39.5994
-44.0928
-47.5393
-49.8999
-51.404
-52.326
-52.886
-53.2364
-53.475
-53.6613
-53.8304
-54.0013
-54.1819
-54.3698
-54.5511
-54.6954
-54.7467
-54.6065
-54.0944
-52.8649
-50.3368
-46.1789
-42.2349
-36.6761
-30.5555
-22.3658
-13.8549
-6.49791
-3.14398
-1.98232
-1.33308
-0.904989
-0.611923
-0.410727
-0.26966
-0.160548
-0.0683596
0.0154408
0.0901406
0.163022
0.235021
0.30654
0.377751
0.4487
0.519473
0.590315
-22.0882
-24.7851
-28.7127
-33.2797
-37.9624
-42.1594
-45.3971
-47.6277
-49.0554
-49.933
-50.4664
-50.7996
-51.0251
-51.1997
-51.3568
-51.5145
-51.6805
-51.853
-52.0191
-52.1509
-52.1969
-52.0659
-51.5922
-50.4637
-48.1689
-44.4245
-40.7336
-35.5749
-29.7523
-21.972
-13.7311
-6.58045
-3.23044
-2.03741
-1.37339
-0.937711
-0.639962
-0.435236
-0.291208
-0.179921
-0.0861089
-0.00214245
0.0742782
0.147168
0.219142
0.290647
0.361857
0.432817
0.50362
0.574526
-21.7258
-24.2166
-27.8754
-32.1472
-36.5338
-40.4764
-43.535
-45.654
-47.0163
-47.856
-48.3668
-48.6853
-48.8998
-49.0645
-49.2113
-49.3578
-49.5115
-49.6709
-49.8242
-49.9455
-49.987
-49.8639
-49.423
-48.3804
-46.282
-42.8818
-39.4139
-34.5976
-29.0414
-21.6204
-13.6285
-6.66421
-3.31666
-2.09272
-1.41379
-0.970376
-0.667862
-0.459583
-0.312613
-0.199166
-0.10377
-0.0191259
0.0586503
0.131613
0.203561
0.275049
0.346258
0.417228
0.488059
0.559021
-21.3997
-23.7104
-27.1338
-31.1481
-35.2779
-39.0004
-41.9037
-43.9261
-45.2319
-46.0389
-46.5303
-46.8363
-47.0413
-47.1974
-47.3355
-47.4725
-47.6156
-47.7637
-47.9061
-48.0185
-48.0562
-47.9399
-47.5274
-46.5586
-44.6272
-41.5168
-38.2464
-33.726
-28.4089
-21.3059
-13.5442
-6.74897
-3.4026
-2.14818
-1.45423
-1.00296
-0.695611
-0.483757
-0.333866
-0.218272
-0.121313
-0.0354313
0.0432246
0.116349
0.18827
0.259741
0.330949
0.401927
0.472782
0.543797
-21.1053
-23.2576
-26.4736
-30.2616
-34.1669
-37.6973
-40.4649
-42.4029
-43.6595
-44.4382
-44.9128
-45.2079
-45.4047
-45.5535
-45.684
-45.8127
-45.9467
-46.0852
-46.2181
-46.3227
-46.3572
-46.247
-45.8591
-44.9544
-43.1665
-40.3024
-37.2079
-32.9452
-27.8439
-21.0242
-13.4756
-6.8345
-3.48822
-2.20376
-1.49468
-1.03545
-0.723195
-0.50775
-0.354957
-0.237229
-0.138725
-0.051598
0.0279883
0.10137
0.173264
0.244717
0.315923
0.386909
0.457786
0.528846
-20.839
-22.8512
-25.8832
-29.4709
-33.1786
-36.5401
-39.1883
-41.0522
-42.2656
-43.0195
-43.4794
-43.765
-43.9547
-44.0971
-44.221
-44.3425
-44.4686
-44.5987
-44.7233
-44.8213
-44.853
-44.7481
-44.382
-43.5332
-41.8695
-39.2166
-36.2794
-32.2431
-27.3372
-20.7714
-13.4208
-6.92062
-3.57346
-2.25938
-1.53511
-1.06782
-0.750601
-0.53155
-0.375875
-0.256029
-0.155997
-0.0676718
0.0129304
0.0866719
0.158538
0.229972
0.301175
0.372168
0.443064
0.514166
-20.5975
-22.485
-25.353
-28.7626
-32.2951
-35.5072
-38.0497
-39.8479
-41.0232
-41.7553
-42.2024
-42.4797
-42.6632
-42.7999
-42.9181
-43.0333
-43.1524
-43.2751
-43.3925
-43.4847
-43.5139
-43.4138
-43.0669
-42.2673
-40.712
-38.2418
-35.4459
-31.6094
-26.8812
-20.5445
-13.3779
-7.00712
-3.65827
-2.315
-1.57548
-1.10004
-0.777816
-0.555149
-0.396611
-0.274661
-0.173117
-0.0836566
-0.0033622
0.0722388
0.144086
0.2155
0.2867
0.357699
0.428612
0.49975
-20.3779
-22.1542
-24.8752
-28.1254
-31.5018
-34.581
-37.0293
-38.7691
-39.9106
-40.6234
-41.0592
-41.3292
-41.5072
-41.639
-41.7521
-41.8617
-41.9747
-42.0909
-42.202
-42.2889
-42.3161
-42.2202
-41.8904
-41.1345
-39.6743
-37.3632
-34.6947
-31.0359
-26.4697
-20.3404
-13.3454
-7.09384
-3.74261
-2.37058
-1.61577
-1.13211
-0.804826
-0.578537
-0.417156
-0.29312
-0.190076
-0.0995067
-0.0185276
0.0580198
0.129903
0.201297
0.272493
0.343496
0.414424
0.485594
-20.1781
-21.8544
-24.4432
-27.5501
-30.7868
-33.747
-36.1112
-37.7987
-38.91
-39.6057
-40.0314
-40.2951
-40.4682
-40.5956
-40.7042
-40.8089
-40.9164
-41.0268
-41.1323
-41.2147
-41.24
-41.148
-40.8335
-40.1164
-38.7403
-36.5685
-34.0153
-30.5153
-26.0975
-20.157
-13.3221
-7.18062
-3.82642
-2.42605
-1.65594
-1.16399
-0.831618
-0.601705
-0.437503
-0.311396
-0.206869
-0.115208
-0.0332292
0.0439953
0.115982
0.187355
0.258548
0.329555
0.400496
0.471694
-19.9958
-21.5822
-24.0515
-27.0291
-30.1399
-32.9934
-35.2819
-36.9225
-38.0067
-38.6871
-39.104
-39.3619
-39.5307
-39.6543
-39.7589
-39.8591
-39.9618
-40.0671
-40.1675
-40.2458
-40.2695
-40.181
-39.8803
-39.198
-37.8965
-35.8476
-33.3991
-30.0417
-25.76
-19.992
-13.3068
-7.2673
-3.90963
-2.48138
-1.69595
-1.19567
-0.85818
-0.624643
-0.457644
-0.329484
-0.223486
-0.130752
-0.0477743
0.0301543
0.102319
0.173672
0.24486
0.315871
0.386822
0.458044
-19.8294
-21.3344
-23.6954
-26.5558
-29.553
-32.3101
-34.5303
-36.1286
-37.1886
-37.8552
-38.2642
-38.517
-38.6821
-38.8022
-38.9031
-38.9994
-39.0978
-39.1984
-39.2943
-39.3691
-39.3914
-39.3061
-39.0178
-38.3667
-37.1318
-35.1919
-32.8387
-29.6099
-25.4534
-19.8436
-13.2985
-7.35375
-3.99221
-2.5365
-1.73578
-1.22712
-0.884499
-0.647343
-0.477569
-0.347377
-0.239924
-0.146131
-0.0621999
0.0164878
0.0889079
0.160241
0.231425
0.302438
0.373398
0.444641
-19.6773
-21.1084
-23.3708
-26.1248
-29.0189
-31.6888
-33.8472
-35.4072
-36.4452
-37.0996
-37.5015
-37.7498
-37.9114
-38.0284
-38.1261
-38.2189
-38.3134
-38.4098
-38.5017
-38.5732
-38.5943
-38.5119
-38.2348
-37.6121
-36.4367
-34.5939
-32.3277
-29.2154
-25.1744
-19.7102
-13.2963
-7.43983
-4.07408
-2.59137
-1.7754
-1.25834
-0.910562
-0.669796
-0.497273
-0.365068
-0.256175
-0.161339
-0.0765205
0.00298895
0.0757446
0.147058
0.218238
0.289253
0.36022
0.431479
-19.538
-20.9019
-23.0745
-25.7313
-28.5316
-31.1224
-33.2245
-34.7498
-35.768
-36.4113
-36.8068
-37.0511
-37.2097
-37.3239
-37.4187
-37.5083
-37.5993
-37.692
-37.7802
-37.8488
-37.8687
-37.789
-37.5223
-36.9251
-35.8034
-34.0474
-31.8609
-28.8545
-24.9202
-19.5904
-13.2996
-7.52542
-4.1552
-2.64595
-1.81476
-1.28929
-0.936357
-0.691994
-0.516749
-0.382553
-0.272235
-0.17637
-0.0907213
-0.0130846
0.0628074
0.134118
0.205294
0.27631
0.347282
0.418555
-19.4105
-20.713
-22.8034
-25.3713
-28.086
-30.6046
-32.6556
-34.1493
-35.1495
-35.7829
-36.1727
-36.4133
-36.5692
-36.6809
-36.7731
-36.8598
-36.9475
-37.0369
-37.1218
-37.1878
-37.2067
-37.1295
-36.8721
-36.2982
-35.225
-33.5471
-31.4336
-28.5237
-24.6884
-19.4827
-13.3077
-7.61042
-4.23551
-2.70018
-1.85386
-1.31997
-0.961872
-0.713928
-0.535988
-0.399824
-0.2881
-0.191218
-0.104745
-0.0263181
0.0500477
0.121416
0.192588
0.263604
0.334581
0.405864
-19.2936
-20.5399
-22.5549
-25.0413
-27.6777
-30.1304
-32.1347
-33.5996
-34.5835
-35.2078
-35.5925
-35.8299
-35.9832
-36.0927
-36.1826
-36.2666
-36.3515
-36.4377
-36.5197
-36.5833
-36.6013
-36.5264
-36.2776
-35.7249
-34.6956
-33.0881
-31.0419
-28.2203
-24.4767
-19.3863
-13.32
-7.69471
-4.31496
-2.75402
-1.89264
-1.35034
-0.987095
-0.73559
-0.554987
-0.416879
-0.303764
-0.205881
-0.118603
-0.0393586
0.037466
0.108947
0.180116
0.251132
0.322111
0.393402
-19.1864
-20.3811
-22.3268
-24.7383
-27.3029
-29.6953
-31.6568
-33.0953
-34.0643
-34.6805
-35.0606
-35.2951
-35.4462
-35.5536
-35.6413
-35.723
-35.8052
-35.8887
-35.968
-36.0293
-36.0466
-35.9738
-35.733
-35.1996
-34.2102
-32.6664
-30.6822
-27.9416
-24.2833
-19.2999
-13.336
-7.77821
-4.39349
-2.80743
-1.93109
-1.3804
-1.01202
-0.756973
-0.573737
-0.433711
-0.319225
-0.220353
-0.132289
-0.0522552
0.0250545
0.0967063
0.167874
0.238889
0.309869
0.381166
-19.088
-20.2353
-22.1171
-24.4597
-26.9582
-29.2952
-31.2175
-32.6319
-33.5874
-34.1962
-34.5721
-34.8039
-34.9531
-35.0587
-35.1444
-35.224
-35.3038
-35.3847
-35.4615
-35.5209
-35.5374
-35.4666
-35.2331
-34.7175
-33.7645
-32.2785
-30.3515
-27.6854
-24.1065
-19.2228
-13.3552
-7.86083
-4.47106
-2.86036
-1.96918
-1.41013
-1.03662
-0.77807
-0.592234
-0.450316
-0.334479
-0.234633
-0.1458
-0.0650243
0.0128065
0.0846893
0.155856
0.226871
0.297851
0.36915
-18.9977
-20.1013
-21.9241
-24.2031
-26.6408
-28.9268
-30.8131
-32.2054
-33.1485
-33.7506
-34.1227
-34.3523
-34.4996
-34.6035
-34.6875
-34.7651
-34.8427
-34.9212
-34.9958
-35.0534
-35.0693
-35.0003
-34.7735
-34.2743
-33.3546
-31.9212
-30.0471
-27.4497
-23.9448
-19.1541
-13.3773
-7.9425
-4.54761
-2.91278
-2.00687
-1.43951
-1.06091
-0.798874
-0.610473
-0.46669
-0.349521
-0.248717
-0.159131
-0.0776743
0.00071677
0.072892
0.14406
0.215073
0.286051
0.357351
-18.9149
-19.978
-21.7463
-23.9664
-26.348
-28.5871
-30.4402
-31.8123
-32.7441
-33.3401
-33.7089
-33.9363
-34.082
-34.1844
-34.2668
-34.3425
-34.4181
-34.4945
-34.567
-34.6229
-34.6384
-34.5711
-34.3505
-33.8664
-32.9771
-31.5918
-29.7667
-27.2327
-23.797
-19.0931
-13.4019
-8.02314
-4.62311
-2.96463
-2.04416
-1.46852
-1.08486
-0.819378
-0.628448
-0.48283
-0.364351
-0.262603
-0.172281
-0.0901918
-0.0137297
0.0612964
0.132479
0.203491
0.274467
0.345766
-18.8388
-19.8646
-21.5823
-23.7479
-26.0776
-28.2735
-30.0961
-31.4495
-32.3709
-32.9615
-33.3272
-33.5527
-33.697
-33.798
-33.8789
-33.9529
-34.0267
-34.1011
-34.1717
-34.2261
-34.2411
-34.1754
-33.9606
-33.4904
-32.6291
-31.2878
-29.5082
-27.0329
-23.6618
-19.0391
-13.4287
-8.10268
-4.6975
-3.01589
-2.081
-1.49715
-1.10847
-0.839576
-0.646156
-0.498732
-0.378964
-0.276289
-0.185245
-0.102532
-0.0254938
0.049863
0.121112
0.192122
0.263093
0.334389
-18.7689
-19.7601
-21.431
-23.546
-25.8277
-27.9836
-29.778
-31.1143
-32.0263
-32.6118
-32.9747
-33.1986
-33.3415
-33.4413
-33.5208
-33.5934
-33.6654
-33.7381
-33.8069
-33.86
-33.8745
-33.8103
-33.6009
-33.1435
-32.308
-31.0071
-29.2697
-26.8488
-23.5382
-18.9916
-13.4574
-8.18108
-4.77075
-3.06652
-2.11738
-1.52538
-1.13172
-0.859463
-0.663591
-0.514393
-0.393359
-0.289773
-0.198023
-0.114707
-0.0370739
0.0385935
0.109952
0.180961
0.251928
0.323219
-18.7048
-19.6638
-21.2912
-23.3593
-25.5964
-27.7153
-29.4837
-30.8042
-31.7076
-32.2886
-32.6491
-32.8714
-33.0132
-33.1118
-33.1901
-33.2612
-33.3317
-33.4027
-33.4699
-33.5217
-33.5358
-33.4731
-33.2687
-32.8232
-32.0114
-30.7476
-29.0495
-26.6792
-23.4253
-18.95
-13.4877
-8.25829
-4.84282
-3.11647
-2.15327
-1.55321
-1.15462
-0.879033
-0.680751
-0.52981
-0.407533
-0.303053
-0.210613
-0.126712
-0.048504
0.0274815
0.0989953
0.170004
0.240965
0.312251
-18.646
-19.5751
-21.1619
-23.1864
-25.3822
-27.4669
-29.2112
-30.5172
-31.4127
-31.9895
-32.3478
-32.5688
-32.7095
-32.8071
-32.8843
-32.9541
-33.0231
-33.0926
-33.1583
-33.209
-33.2228
-33.1614
-32.9617
-32.5273
-31.7373
-30.5077
-28.8462
-26.5229
-23.3222
-18.9138
-13.5195
-8.33425
-4.91367
-3.16572
-2.18865
-1.58061
-1.17715
-0.898282
-0.697631
-0.544981
-0.421485
-0.316129
-0.223014
-0.138546
-0.0597967
0.0165218
0.088239
0.159248
0.230202
0.301481
-18.5921
-19.4933
-21.0424
-23.0262
-25.1836
-27.2366
-28.9587
-30.2513
-31.1396
-31.7127
-32.069
-32.2888
-32.4285
-32.5252
-32.6013
-32.67
-32.7377
-32.8057
-32.8701
-32.9197
-32.9332
-32.8731
-32.6777
-32.2536
-31.4839
-30.2859
-28.6585
-26.379
-23.2282
-18.8827
-13.5524
-8.40892
-4.98327
-3.21424
-2.2235
-1.60758
-1.1993
-0.917205
-0.714228
-0.559903
-0.435213
-0.328999
-0.235225
-0.150207
-0.0709592
0.00570994
0.0776789
0.148688
0.219636
0.290907
-18.5427
-19.4178
-20.9318
-22.8778
-24.9995
-27.023
-28.7246
-30.0049
-30.8865
-31.4563
-31.8108
-32.0295
-32.1684
-32.2642
-32.3394
-32.4069
-32.4734
-32.5401
-32.6032
-32.6519
-32.6651
-32.6062
-32.415
-32.0004
-31.2494
-30.0806
-28.4851
-26.2464
-23.1425
-18.8561
-13.5865
-8.48229
-5.05159
-3.262
-2.25781
-1.63411
-1.22107
-0.935798
-0.730541
-0.574574
-0.448717
-0.341663
-0.247245
-0.161694
-0.0819865
-0.00637195
0.0673045
0.138322
0.209261
0.280524
-18.4974
-19.3483
-20.8294
-22.7401
-24.8286
-26.8248
-28.5074
-29.7763
-30.6518
-31.2186
-31.5716
-31.7893
-31.9275
-32.0225
-32.0968
-32.1633
-32.2287
-32.2942
-32.3561
-32.4039
-32.4169
-32.3591
-32.1717
-31.766
-31.0325
-29.8907
-28.3249
-26.1244
-23.0645
-18.8337
-13.6214
-8.55431
-5.11861
-3.30896
-2.29155
-1.66017
-1.24246
-0.954058
-0.746566
-0.588994
-0.461994
-0.354119
-0.259073
-0.173005
-0.0928531
-0.0169014
0.0570867
0.128145
0.199076
0.270329
-18.4559
-19.2841
-20.7346
-22.6124
-24.6699
-26.6408
-28.3057
-29.5642
-30.4342
-30.9983
-31.3499
-31.5667
-31.7042
-31.7985
-31.872
-31.9376
-32.0019
-32.0663
-32.1272
-32.1741
-32.1869
-32.1303
-31.9464
-31.5491
-30.8317
-29.7149
-28.177
-26.0121
-22.9937
-18.8152
-13.657
-8.62496
-5.1843
-3.35511
-2.32471
-1.68578
-1.26345
-0.971981
-0.762302
-0.603161
-0.475044
-0.366368
-0.270711
-0.18414
-0.103562
-0.0271991
0.0470217
0.118154
0.189076
0.26032
-18.4181
-19.225
-20.6469
-22.4938
-24.5225
-26.4698
-28.1184
-29.3673
-30.2323
-30.7939
-31.1443
-31.3604
-31.4973
-31.591
-31.6637
-31.7285
-31.7918
-31.8552
-31.915
-31.9612
-31.9739
-31.9182
-31.7378
-31.3482
-30.6459
-29.5523
-28.0404
-25.9089
-22.9296
-18.8003
-13.6933
-8.69423
-5.24863
-3.40043
-2.35728
-1.71091
-1.28405
-0.989566
-0.777748
-0.617074
-0.487867
-0.37841
-0.282156
-0.195099
-0.114112
-0.0373348
0.0371037
0.108345
0.179258
0.250492
-18.3835
-19.1706
-20.5656
-22.3838
-24.3856
-26.311
-27.9445
-29.1845
-30.045
-30.6044
-30.9537
-31.1692
-31.3055
-31.3986
-31.4707
-31.5347
-31.5971
-31.6595
-31.7184
-31.7639
-31.7764
-31.7218
-31.5445
-31.1622
-30.4739
-29.4019
-27.9143
-25.8142
-22.8715
-18.7888
-13.73
-8.76209
-5.3116
-3.44488
-2.38923
-1.73555
-1.30424
-1.00681
-0.7929
-0.630731
-0.500463
-0.390243
-0.29341
-0.205882
-0.124501
-0.047326
0.027328
0.0987149
0.169618
0.240842
-18.3519
-19.1204
-20.4902
-22.2816
-24.2583
-26.1633
-27.7829
-29.0147
-29.8711
-30.4286
-30.7769
-30.9919
-31.1278
-31.2204
-31.2918
-31.3551
-31.4166
-31.4781
-31.5362
-31.5811
-31.5935
-31.5398
-31.3655
-30.9899
-30.3147
-29.2628
-27.7981
-25.7272
-22.8192
-18.7802
-13.7672
-8.82855
-5.37319
-3.48845
-2.42057
-1.75971
-1.32403
-1.02371
-0.80776
-0.644134
-0.512831
-0.40187
-0.304473
-0.216489
-0.13473
-0.0571811
0.0176906
0.0892598
0.160154
0.231368
-18.3232
-19.0741
-20.4205
-22.1866
-24.14
-26.0261
-27.6327
-28.8571
-29.7097
-30.2655
-30.6131
-30.8275
-30.963
-31.0551
-31.126
-31.1886
-31.2494
-31.3101
-31.3674
-31.4117
-31.4239
-31.3712
-31.1997
-30.8305
-30.1674
-29.1343
-27.691
-25.6476
-22.7722
-18.7745
-13.8046
-8.89358
-5.43338
-3.53114
-2.45127
-1.78338
-1.34341
-1.04027
-0.822327
-0.657281
-0.524972
-0.413289
-0.315346
-0.22692
-0.144797
-0.0669053
0.00818802
0.0799767
0.150861
0.222067
-18.2971
-19.0316
-20.3559
-22.0985
-24.03
-25.8986
-27.4932
-28.7107
-29.56
-30.1142
-30.4611
-30.6752
-30.8103
-30.9021
-30.9724
-31.0344
-31.0945
-31.1544
-31.211
-31.2547
-31.2669
-31.215
-31.0461
-30.6829
-30.0313
-29.0155
-27.5923
-25.5747
-22.7302
-18.7714
-13.8422
-8.95718
-5.49218
-3.57291
-2.48133
-1.80655
-1.36239
-1.05648
-0.8366
-0.670173
-0.536885
-0.424502
-0.326028
-0.237175
-0.154702
-0.0764986
-0.00178923
0.07086
0.141738
0.212935
-18.2734
-18.9925
-20.2961
-22.0167
-23.9278
-25.78
-27.3636
-28.5749
-29.4211
-29.974
-30.3203
-30.5341
-30.6689
-30.7603
-30.8302
-30.8915
-30.9509
-31.0102
-31.0661
-31.1093
-31.1215
-31.0704
-30.904
-30.5465
-29.9054
-28.9059
-27.5016
-25.5082
-22.6927
-18.7707
-13.88
-9.01937
-5.54956
-3.61376
-2.51073
-1.82921
-1.38095
-1.07235
-0.850579
-0.682811
-0.548572
-0.435509
-0.336522
-0.247256
-0.164446
-0.0859488
-0.0111579
0.0618906
0.13278
0.203969
-18.252
-18.9565
-20.2407
-21.9407
-23.8328
-25.6698
-27.2432
-28.4487
-29.2922
-29.844
-30.1899
-30.4034
-30.538
-30.629
-30.6985
-30.7593
-30.8181
-30.8767
-30.9319
-30.9747
-30.9868
-30.9365
-30.7726
-30.4203
-29.7891
-28.8049
-27.4182
-25.4476
-22.6595
-18.7722
-13.9178
-9.08012
-5.60553
-3.65368
-2.53948
-1.85137
-1.3991
-1.08787
-0.864265
-0.695194
-0.560034
-0.446312
-0.346827
-0.257162
-0.174029
-0.095253
-0.0201845
0.0530602
0.123985
0.195167
-18.2326
-18.9235
-20.1895
-21.8701
-23.7445
-25.5674
-27.1313
-28.3317
-29.1727
-29.7236
-30.0691
-30.2824
-30.4168
-30.5075
-30.5766
-30.6369
-30.6952
-30.7531
-30.8078
-30.8502
-30.8623
-30.8127
-30.6511
-30.3037
-29.6819
-28.7118
-27.3418
-25.3925
-22.6303
-18.7757
-13.9556
-9.13946
-5.66009
-3.69266
-2.56757
-1.87302
-1.41683
-1.10304
-0.877659
-0.707324
-0.571271
-0.456911
-0.356945
-0.266896
-0.183451
-0.104411
-0.0290474
0.0443637
0.115348
0.186526
-18.2152
-18.8932
-20.1421
-21.8046
-23.6625
-25.4722
-27.0275
-28.2231
-29.0621
-29.6121
-29.9574
-30.1705
-30.3047
-30.3952
-30.4639
-30.5238
-30.5815
-30.6389
-30.6931
-30.7351
-30.7472
-30.6983
-30.5388
-30.1961
-29.5829
-28.6261
-27.2717
-25.3426
-22.6049
-18.7811
-13.9933
-9.19738
-5.71323
-3.73069
-2.59499
-1.89415
-1.43416
-1.11788
-0.890761
-0.719203
-0.582285
-0.467307
-0.366876
-0.276458
-0.192714
-0.113422
-0.037769
0.0357973
0.106869
0.178042
-18.1996
-18.8655
-20.0983
-21.7438
-23.5863
-25.3839
-26.9312
-28.1225
-28.9595
-29.5089
-29.854
-30.0671
-30.2012
-30.2914
-30.3598
-30.4193
-30.4765
-30.5334
-30.587
-30.6287
-30.6408
-30.5927
-30.4352
-30.0968
-29.4919
-28.5475
-27.2077
-25.2975
-22.5829
-18.7883
-14.031
-9.2539
-5.76497
-3.76777
-2.62174
-1.91478
-1.45107
-1.13237
-0.903574
-0.730831
-0.593076
-0.477502
-0.376623
-0.285849
-0.201818
-0.122286
-0.0463586
0.0273574
0.098542
0.169714
-18.1856
-18.8401
-20.0578
-21.6875
-23.5155
-25.3019
-26.8419
-28.0293
-28.8647
-29.4136
-29.7585
-29.9716
-30.1056
-30.1957
-30.2638
-30.3228
-30.3796
-30.436
-30.4892
-30.5305
-30.5427
-30.4952
-30.3396
-30.0054
-29.4081
-28.4753
-27.1493
-25.257
-22.5641
-18.7971
-14.0684
-9.30902
-5.81531
-3.8039
-2.64782
-1.9349
-1.46757
-1.14652
-0.916099
-0.742209
-0.603647
-0.487497
-0.386187
-0.29507
-0.210764
-0.131005
-0.0548218
0.0190411
0.0903658
0.161538
-18.1732
-18.8169
-20.0204
-21.6353
-23.4499
-25.2258
-26.7591
-27.943
-28.777
-29.3255
-29.6704
-29.8835
-30.0174
-30.1073
-30.1752
-30.2339
-30.2903
-30.3462
-30.399
-30.44
-30.4522
-30.4054
-30.2516
-29.9213
-29.3311
-28.4092
-27.0962
-25.2206
-22.5484
-18.8073
-14.1057
-9.36276
-5.86425
-3.83907
-2.67323
-1.9545
-1.48366
-1.16033
-0.928337
-0.753341
-0.613999
-0.497295
-0.395569
-0.304123
-0.219553
-0.139577
-0.0631624
0.0108457
0.0823373
0.153513
-18.1622
-18.7957
-19.9859
-21.5869
-23.389
-25.1552
-26.6824
-27.8632
-28.696
-29.2442
-29.5892
-29.8024
-29.9363
-30.026
-30.0936
-30.152
-30.208
-30.2635
-30.3159
-30.3567
-30.3689
-30.3228
-30.1707
-29.8441
-29.2606
-28.3489
-27.048
-25.1883
-22.5354
-18.8189
-14.1428
-9.41514
-5.91181
-3.87329
-2.69796
-1.9736
-1.49935
-1.1738
-0.940291
-0.764227
-0.624135
-0.506896
-0.40477
-0.313009
-0.228188
-0.148005
-0.0713834
0.0027688
0.0744538
0.145634
-18.1525
-18.7765
-19.9542
-21.5421
-23.3325
-25.0899
-26.6114
-27.7895
-28.6213
-29.1694
-29.5145
-29.7277
-29.8616
-29.9513
-30.0187
-30.0768
-30.1324
-30.1875
-30.2395
-30.2801
-30.2924
-30.2468
-30.0964
-29.7732
-29.1961
-28.2938
-27.0045
-25.1596
-22.5251
-18.8318
-14.1796
-9.46616
-5.958
-3.90656
-2.72202
-1.99219
-1.51463
-1.18695
-0.951964
-0.77487
-0.634055
-0.516302
-0.413793
-0.32173
-0.236668
-0.156288
-0.0794821
-0.00622401
0.0667088
0.137901
-18.1441
-18.759
-19.9249
-21.5006
-23.2802
-25.0294
-26.5458
-27.7214
-28.5525
-29.1005
-29.4458
-29.6591
-29.7931
-29.8826
-29.9498
-30.0077
-30.0629
-30.1177
-30.1694
-30.2098
-30.2221
-30.1772
-30.0283
-29.7084
-29.1372
-28.2439
-26.9653
-25.1344
-22.5173
-18.8458
-14.2161
-9.51586
-6.00284
-3.93888
-2.74542
-2.01028
-1.52951
-1.19976
-0.963358
-0.785273
-0.643762
-0.525516
-0.422639
-0.330288
-0.244995
-0.164429
-0.0874464
-0.0140073
0.0590853
0.13031
-18.1368
-18.7431
-19.898
-21.4623
-23.2319
-24.9735
-26.4853
-27.6588
-28.4892
-29.0372
-29.3827
-29.5963
-29.7303
-29.8198
-29.8868
-29.9444
-29.9994
-30.0538
-30.1052
-30.1454
-30.1578
-30.1134
-29.9661
-29.6493
-29.0836
-28.1986
-26.9301
-25.1124
-22.5117
-18.8608
-14.2523
-9.56424
-6.04633
-3.97026
-2.76815
-2.02786
-1.54399
-1.21224
-0.974475
-0.795437
-0.653259
-0.53454
-0.431311
-0.338683
-0.253171
-0.172427
-0.0952801
-0.0216239
0.0515816
0.122858
-18.1305
-18.7288
-19.8732
-21.4269
-23.1871
-24.9218
-26.4294
-27.6011
-28.431
-28.9793
-29.325
-29.5388
-29.6728
-29.7623
-29.8292
-29.8865
-29.9412
-29.9954
-30.0465
-30.0866
-30.099
-30.0552
-29.9093
-29.5954
-29.0349
-28.1577
-26.8988
-25.0935
-22.5083
-18.8768
-14.2881
-9.61132
-6.08849
-4.0007
-2.79022
-2.04495
-1.55808
-1.2244
-0.98532
-0.805366
-0.662547
-0.543375
-0.439809
-0.346918
-0.261197
-0.180285
-0.102983
-0.0291071
0.044194
0.115544
-18.1253
-18.7158
-19.8506
-21.3943
-23.1459
-24.8741
-26.378
-27.5481
-28.3778
-28.9262
-29.2723
-29.4863
-29.6204
-29.7099
-29.7766
-29.8338
-29.8882
-29.9421
-29.993
-30.0329
-30.0454
-30.0022
-29.8576
-29.5465
-28.9909
-28.121
-26.871
-25.0774
-22.5069
-18.8938
-14.3236
-9.65713
-6.12935
-4.03022
-2.81163
-2.06155
-1.57178
-1.23624
-0.995894
-0.815062
-0.67163
-0.552024
-0.448136
-0.354994
-0.269075
-0.188003
-0.110557
-0.0364679
0.0369195
0.108364
-18.1209
-18.7042
-19.8298
-21.3642
-23.1078
-24.8302
-26.3308
-27.4995
-28.329
-28.8778
-29.2243
-29.4385
-29.5728
-29.6622
-29.7289
-29.7858
-29.84
-29.8937
-29.9443
-29.9841
-29.9968
-29.954
-29.8107
-29.5022
-28.9512
-28.0882
-26.8466
-25.064
-22.5073
-18.9115
-14.3587
-9.70168
-6.16892
-4.05882
-2.8324