/*--------------------------------*- C++ -*----------------------------------*\
| =========                 |                                                 |
| \\      /  F ield         | OpenFOAM: The Open Source CFD Toolbox           |
|  \\    /   O peration     | Version:  v1912                                 |
|   \\  /    A nd           | Website:  www.openfoam.com                      |
|    \\/     M anipulation  |                                                 |
\*---------------------------------------------------------------------------*/
FoamFile
{
    version     2.0;
    format      ascii;
    class       volScalarField;
    location    "31536000";
    object      psi;
}
// * * * * * * * * * * * * * * * * * * * * * * * * * * * * * * * * * * * * * //

dimensions      [0 1 0 0 0 0 0];


internalField   nonuniform List<scalar> 
4250
(
-158
-158.263
-158.021
-158
-158
-158
-158
-158
-158
-158
-158
-158
-158
-158
-158
-158
-158
-158
-158
-158
-158
-158
-158
-158
-158
-158
-158
-158
-158
-158
-158
-158
-158
-158
-158
-158
-158
-158
-158
-158
-158
-158
-158
-158
-158
-158
-158
-158
-158
-158
-157.882
-158.513
-158.053
-158.009
-158.003
-158.001
-158.001
-158
-158
-158
-158
-158
-158
-158
-158
-158
-158
-158
-158
-158
-158
-158
-158
-158
-158
-158
-158
-158
-158
-158
-158
-158
-158
-158
-158
-158
-158
-158
-158
-158
-158
-158
-158
-158
-158
-158
-158
-158.001
-158.003
-158.004
-121.186
-158.531
-158.114
-158.019
-158.006
-158.003
-158.001
-158
-158
-158
-158
-158
-158
-158
-158
-158
-158
-158
-158
-158
-158
-158
-158
-158
-158
-158
-158
-158
-158
-158
-158
-158
-158
-158
-158
-158
-158
-158
-158
-158
-158
-158
-158
-158
-158
-158
-158.001
-158.002
-158.005
-158.008
-73.5171
-157.979
-158.237
-158.037
-158.006
-158.003
-158.001
-158
-158
-158
-158
-158
-158
-158
-158
-158
-158
-158
-158
-158
-158
-158
-158
-158
-158
-158
-158
-158
-158
-158
-158
-158
-158
-158
-158
-158
-158
-158
-158
-158
-158
-158
-158
-158
-158
-158
-158.001
-158.003
-158.008
-158.012
-56.5169
-150.355
-158.317
-158.085
-158.005
-158.003
-158.001
-158
-158
-158
-158
-158
-158
-158
-158
-158
-158
-158
-158
-158
-158
-158
-158
-158
-158
-158
-158
-158
-158
-158
-158
-158
-158
-158
-158
-158
-158
-158
-158
-158
-158
-158
-158
-158
-158
-158
-158.001
-158.003
-158.01
-158.016
-47.1212
-94.4261
-157.875
-158.184
-158.01
-158.002
-158.001
-158
-158
-158
-158
-158
-158
-158
-158
-158
-158
-158
-158
-158
-158
-158
-158
-158
-158
-158
-158
-158
-158
-158
-158
-158
-158
-158
-158
-158
-158
-158
-158
-158
-158
-158
-158
-158
-158
-158
-158.001
-158.004
-158.013
-158.021
-41.2663
-70.8824
-123.307
-157.929
-158.051
-158.001
-158
-158
-158
-158
-158
-158
-158
-158
-158
-158
-158
-158
-158
-158
-158
-158
-158
-158
-158
-158
-158
-158
-158
-158
-158
-158
-158
-158
-158
-158
-158
-158
-158
-158
-158
-158
-158
-158
-158
-158
-158.001
-158.004
-158.016
-158.026
-37.1894
-57.8784
-91.5507
-136.827
-157.937
-158.009
-158
-158
-158
-158
-158
-158
-158
-158
-158
-158
-158
-158
-158
-158
-158
-158
-158
-158
-158
-158
-158
-158
-158
-158
-158
-158
-158
-158
-158
-158
-158
-158
-158
-158
-158
-158
-158
-158
-158
-158
-158.001
-158.003
-158.021
-158.035
-34.1642
-49.6405
-73.1768
-104.779
-139.658
-157.908
-157.967
-157.996
-158
-158
-158
-158
-158
-158
-158
-158
-158
-158
-158
-158
-158
-158
-158
-158
-158
-158
-158
-158
-158
-158
-158
-158
-158
-158
-158
-158
-158
-158
-158
-158
-158
-158
-158
-158
-158
-158
-158.001
-158.003
-158.029
-158.049
-31.8231
-43.9441
-61.6584
-84.4245
-110.297
-133.568
-148.092
-156.601
-157.908
-157.921
-157.928
-157.932
-157.934
-157.935
-157.936
-157.937
-157.938
-157.939
-157.939
-157.94
-157.942
-157.943
-157.945
-157.946
-157.949
-157.951
-157.954
-157.957
-157.96
-157.965
-157.969
-157.974
-157.98
-157.986
-157.993
-158
-158
-158
-158
-158
-158
-158
-158
-158
-158
-158
-158
-158.003
-158.037
-158.069
-29.9565
-39.7707
-53.8041
-71.2482
-90.619
-108.561
-121.35
-129.548
-134.46
-137.255
-138.835
-139.733
-140.261
-140.59
-140.822
-141.013
-141.194
-141.386
-141.601
-141.848
-142.135
-142.468
-142.857
-143.308
-143.83
-144.433
-145.128
-145.927
-146.845
-147.895
-149.098
-150.471
-152.039
-153.828
-155.868
-157.958
-157.913
-157.926
-157.941
-157.956
-157.973
-157.991
-158
-158
-158
-158
-158
-158.004
-158.04
-158.087
-28.434
-36.5845
-48.114
-62.119
-77.3646
-91.4153
-101.668
-108.378
-112.497
-114.932
-116.339
-117.149
-117.624
-117.92
-118.126
-118.293
-118.45
-118.614
-118.798
-119.008
-119.253
-119.538
-119.871
-120.259
-120.71
-121.233
-121.838
-122.538
-123.347
-124.279
-125.354
-126.593
-128.022
-129.67
-131.572
-133.772
-136.281
-139.117
-142.342
-146.045
-150.346
-155.417
-157.921
-157.952
-157.986
-158
-158
-158.005
-158.035
-158.093
-27.1699
-34.0758
-43.8063
-55.4427
-67.93
-79.3595
-87.7988
-93.3729
-96.8157
-98.8611
-100.047
-100.73
-101.13
-101.378
-101.547
-101.682
-101.808
-101.938
-102.082
-102.247
-102.439
-102.662
-102.923
-103.226
-103.578
-103.987
-104.461
-105.008
-105.639
-106.368
-107.209
-108.178
-109.295
-110.585
-112.075
-113.799
-115.8
-118.127
-120.851
-124.075
-127.942
-132.662
-138.48
-145.464
-153.915
-157.938
-157.993
-158.007
-158.027
-158.081
-26.105
-32.0522
-40.4354
-50.3572
-60.8967
-70.4963
-77.6547
-82.4167
-85.3715
-87.1322
-88.1549
-88.7442
-89.0888
-89.3002
-89.4435
-89.5556
-89.6581
-89.7634
-89.8796
-90.0122
-90.1659
-90.3449
-90.5535
-90.7962
-91.0781
-91.4047
-91.7827
-92.2192
-92.7227
-93.3029
-93.9712
-94.7408
-95.6273
-96.649
-97.828
-99.1913
-100.772
-102.611
-104.766
-107.32
-110.389
-114.139
-118.817
-124.771
-132.491
-142.666
-155.904
-157.979
-158.021
-158.062
-25.197
-30.3879
-37.7287
-46.36
-55.4627
-63.7307
-69.9511
-74.117
-76.7139
-78.2657
-79.1689
-79.6896
-79.9933
-80.1786
-80.3027
-80.3984
-80.4846
-80.5724
-80.6686
-80.7782
-80.905
-81.0526
-81.2243
-81.4241
-81.656
-81.9245
-82.235
-82.5933
-83.0061
-83.4815
-84.0283
-84.6573
-85.3809
-86.2138
-87.1737
-88.2821
-89.5656
-91.0576
-92.8038
-94.8689
-97.3423
-100.352
-104.088
-108.833
-115.007
-123.371
-135.459
-152.447
-157.992
-158.048
-24.415
-28.9973
-35.5104
-43.1399
-51.1454
-58.4086
-63.9176
-67.6316
-69.9575
-71.3517
-72.1647
-72.6337
-72.9069
-73.0726
-73.1826
-73.2661
-73.3403
-73.4152
-73.4969
-73.5896
-73.6967
-73.8212
-73.9661
-74.1345
-74.3298
-74.556
-74.8173
-75.1187
-75.4657
-75.8649
-76.3238
-76.851
-77.4569
-78.1535
-78.9555
-79.8805
-80.9505
-82.1929
-83.6449
-85.358
-87.4032
-89.8812
-92.9394
-96.7994
-101.8
-108.545
-118.272
-133.055
-155.688
-158.018
-23.7356
-27.82
-33.6617
-40.4938
-47.6379
-54.1201
-59.0735
-62.4347
-64.5497
-65.8214
-66.5647
-66.9938
-67.2433
-67.394
-67.4931
-67.5674
-67.6326
-67.6976
-67.7683
-67.8482
-67.9405
-68.0476
-68.1722
-68.317
-68.4849
-68.6792
-68.9036
-69.1622
-69.4599
-69.802
-70.1951
-70.6463
-71.1644
-71.7596
-72.4442
-73.233
-74.1444
-75.2017
-76.4357
-77.8885
-79.6177
-81.7047
-84.268
-87.4854
-91.6332
-97.1938
-105.116
-117.058
-136.9
-157.96
-23.1409
-26.8121
-32.0996
-38.2838
-44.7363
-50.596
-55.105
-58.1841
-60.1309
-61.3054
-61.9932
-62.3907
-62.6217
-62.7606
-62.8511
-62.9182
-62.9763
-63.0338
-63.0959
-63.1659
-63.2466
-63.3403
-63.4492
-63.5757
-63.7224
-63.892
-64.0879
-64.3136
-64.5732
-64.8714
-65.2138
-65.6067
-66.0575
-66.575
-67.1696
-67.8542
-68.6446
-69.5606
-70.6281
-71.8826
-73.3719
-75.1635
-77.3549
-80.0932
-83.6078
-88.2927
-94.8901
-104.7
-120.784
-148.875
-22.617
-25.941
-30.7644
-36.4128
-42.2994
-47.653
-51.7992
-54.6482
-56.4583
-57.5539
-58.197
-58.569
-58.785
-58.9144
-58.9981
-59.0595
-59.1119
-59.1634
-59.2187
-59.2809
-59.3525
-59.4355
-59.532
-59.644
-59.7738
-59.924
-60.0973
-60.2969
-60.5265
-60.7902
-61.0927
-61.4396
-61.8375
-62.2939
-62.818
-63.421
-64.1165
-64.9217
-65.8591
-66.9586
-68.2611
-69.8236
-71.7284
-74.0996
-77.1316
-81.1524
-86.7576
-94.988
-108.2
-131.717
-22.153
-25.182
-29.6119
-34.8107
-40.2269
-45.1617
-49.007
-51.6652
-53.3621
-54.3928
-54.9991
-55.3502
-55.5539
-55.6756
-55.7538
-55.8104
-55.8584
-55.905
-55.9547
-56.0106
-56.0748
-56.1492
-56.2356
-56.3359
-56.4522
-56.5867
-56.7418
-56.9205
-57.1258
-57.3617
-57.6321
-57.9422
-58.2975
-58.7049
-59.1725
-59.7101
-60.3297
-61.0464
-61.8797
-62.8557
-64.0096
-65.3904
-67.0692
-69.1527
-71.8078
-75.3124
-80.1557
-87.1888
-98.266
-117.609
-21.7398
-24.516
-28.6087
-33.4256
-38.4454
-43.0286
-46.6206
-49.1184
-50.7205
-51.6968
-52.2724
-52.6062
-52.7997
-52.915
-52.9886
-53.0414
-53.0856
-53.1282
-53.1734
-53.224
-53.2822
-53.3495
-53.4276
-53.5184
-53.6235
-53.7451
-53.8853
-54.0468
-54.2324
-54.4454
-54.6896
-54.9695
-55.2902
-55.6576
-56.0791
-56.5634
-57.1211
-57.7656
-58.5143
-59.39
-60.4235
-61.6577
-63.1548
-65.008
-67.3626
-70.4576
-74.7026
-80.8064
-90.2588
-106.404
-21.3704
-23.9279
-27.729
-32.2179
-36.8997
-41.1842
-44.5605
-46.9217
-48.4433
-49.3736
-49.9234
-50.2425
-50.4276
-50.5375
-50.6072
-50.6568
-50.6979
-50.7371
-50.7786
-50.8249
-50.8779
-50.9393
-51.0107
-51.0934
-51.1893
-51.3001
-51.428
-51.5752
-51.7443
-51.9384
-52.1608
-52.4157
-52.7075
-53.0419
-53.4252
-53.8653
-54.3718
-54.9567
-55.6355
-56.4284
-57.3628
-58.4768
-59.8254
-61.4911
-63.602
-66.3659
-70.1317
-75.499
-83.6861
-97.3776
-21.039
-23.406
-26.9527
-31.1572
-35.5481
-39.576
-42.7666
-45.0104
-46.4629
-47.3539
-47.8817
-48.1884
-48.3661
-48.4715
-48.538
-48.5849
-48.6234
-48.6598
-48.6981
-48.7407
-48.7895
-48.8459
-48.9114
-48.9875
-49.0755
-49.1773
-49.2947
-49.4299
-49.5851
-49.7633
-49.9674
-50.2012
-50.4689
-50.7754
-51.1267
-51.5297
-51.9934
-52.5284
-53.1486
-53.8724
-54.7242
-55.7382
-56.9637
-58.4744
-60.3845
-62.8766
-66.2524
-71.0252
-78.207
-89.9832
-20.7405
-22.9405
-26.2639
-30.2198
-34.3578
-38.1633
-41.1927
-43.3345
-44.7273
-45.5844
-46.0932
-46.3893
-46.5608
-46.6624
-46.7261
-46.7707
-46.8069
-46.8409
-46.8765
-46.916
-46.9611
-47.0133
-47.0739
-47.1442
-47.2256
-47.3197
-47.4282
-47.5531
-47.6966
-47.8612
-48.0498
-48.2657
-48.5128
-48.7957
-49.1197
-49.4914
-49.9186
-50.4113
-50.9821
-51.6474
-52.4295
-53.3594
-54.4815
-55.8625
-57.6049
-59.871
-62.9245
-67.2102
-73.579
-83.8329
-20.4709
-22.5237
-25.6497
-29.3867
-33.3032
-36.9143
-39.8027
-41.8554
-43.196
-44.0236
-44.516
-44.8029
-44.9691
-45.0673
-45.1287
-45.1713
-45.2055
-45.2375
-45.2707
-45.3075
-45.3495
-45.3981
-45.4544
-45.5198
-45.5955
-45.6829
-45.7838
-45.8999
-46.0333
-46.1862
-46.3614
-46.562
-46.7915
-47.0541
-47.3548
-47.6996
-48.0956
-48.5521
-49.0805
-49.696
-50.4187
-51.277
-52.3115
-53.5827
-55.1834
-57.2592
-60.0432
-63.9242
-69.6256
-78.6497
-20.2269
-22.149
-25.0996
-28.6426
-32.3638
-35.8038
-38.5679
-40.5421
-41.8369
-42.6388
-43.1168
-43.3957
-43.5573
-43.6526
-43.7119
-43.7528
-43.7854
-43.8156
-43.8468
-43.8812
-43.9205
-43.9659
-44.0185
-44.0796
-44.1503
-44.2321
-44.3263
-44.4348
-44.5594
-44.7023
-44.8659
-45.0532
-45.2674
-45.5125
-45.793
-46.1145
-46.4837
-46.9089
-47.4008
-47.9733
-48.645
-49.4418
-50.4012
-51.5785
-53.0584
-54.9723
-57.5284
-61.0692
-66.2156
-74.2315
-20.0055
-21.811
-24.605
-27.9751
-31.5231
-34.8115
-37.4654
-39.3701
-40.6244
-41.4035
-41.869
-42.1409
-42.2985
-42.3913
-42.4488
-42.4882
-42.5193
-42.5479
-42.5774
-42.6098
-42.6467
-42.6893
-42.7387
-42.796
-42.8624
-42.9392
-43.0276
-43.1294
-43.2464
-43.3804
-43.534
-43.7096
-43.9106
-44.1403
-44.4033
-44.7045
-45.0503
-45.4483
-45.9085
-46.4437
-47.0711
-47.8148
-48.7093
-49.8057
-51.1815
-52.9565
-55.3179
-58.5698
-63.2493
-70.4281
-19.8041
-21.5054
-24.1587
-27.374
-30.7673
-33.9207
-36.4765
-38.3192
-39.5375
-40.2966
-40.751
-41.0167
-41.1708
-41.2614
-41.3174
-41.3555
-41.3853
-41.4125
-41.4404
-41.471
-41.5058
-41.546
-41.5926
-41.6466
-41.7092
-41.7815
-41.8649
-41.9609
-42.071
-42.1974
-42.342
-42.5075
-42.6968
-42.9131
-43.1607
-43.4441
-43.7693
-44.1436
-44.576
-45.0786
-45.6674
-46.3648
-47.2027
-48.2287
-49.5143
-51.1692
-53.3629
-56.3672
-60.6498
-67.1257
-19.6208
-21.2283
-23.7549
-26.8308
-30.0855
-33.1181
-35.5859
-37.3731
-38.5593
-39.3005
-39.7451
-40.0054
-40.1564
-40.2451
-40.2997
-40.3366
-40.3654
-40.3913
-40.4178
-40.4469
-40.4798
-40.5179
-40.5619
-40.6131
-40.6723
-40.7407
-40.8196
-40.9103
-41.0145
-41.134
-41.2708
-41.4273
-41.6062
-41.8108
-42.0447
-42.3125
-42.6196
-42.9729
-43.3809
-43.8548
-44.4096
-45.0663
-45.8548
-46.8192
-48.0259
-49.5761
-51.6243
-54.4145
-58.3568
-64.2364
-19.4535
-20.9764
-23.3884
-26.3383
-29.4681
-32.3921
-34.7809
-36.5182
-37.6756
-38.4008
-38.8368
-39.0923
-39.2406
-39.3276
-39.3809
-39.4168
-39.4446
-39.4695
-39.4947
-39.5224
-39.5537
-39.5898
-39.6316
-39.6801
-39.7363
-39.8013
-39.8762
-39.9623
-40.0612
-40.1747
-40.3045
-40.453
-40.6227
-40.8168
-41.0386
-41.2925
-41.5836
-41.9182
-42.3046
-42.7531
-43.278
-43.8988
-44.6436
-45.5538
-46.6912
-48.1495
-50.0706
-52.6745
-56.3225
-61.6918
-19.3008
-20.747
-23.0549
-25.8907
-28.9075
-31.7334
-34.0508
-35.7432
-36.8747
-37.5856
-38.0138
-38.265
-38.4109
-38.4964
-38.5487
-38.5837
-38.6105
-38.6345
-38.6586
-38.685
-38.7149
-38.7492
-38.7891
-38.8353
-38.8888
-38.9506
-39.0219
-39.104
-39.1982
-39.3062
-39.4298
-39.5711
-39.7327
-39.9173
-40.1284
-40.3699
-40.6467
-40.9648
-41.3319
-41.7579
-42.2561
-42.8451
-43.5512
-44.4133
-45.4894
-46.8667
-48.6759
-51.1167
-54.5085
-59.4373
-19.1611
-20.5377
-22.7509
-25.4826
-28.397
-31.1341
-33.3868
-35.0384
-36.1465
-36.8446
-37.2659
-37.5133
-37.6571
-37.7413
-37.7926
-37.8268
-37.8528
-37.8759
-37.8991
-37.9243
-37.9528
-37.9857
-38.0237
-38.0679
-38.119
-38.178
-38.2461
-38.3245
-38.4144
-38.5175
-38.6356
-38.7705
-38.9248
-39.101
-39.3024
-39.5328
-39.7968
-40.1001
-40.45
-40.8559
-41.3303
-41.8908
-42.5625
-43.3818
-44.4035
-45.709
-47.4193
-49.7163
-52.8835
-57.4294
-19.0334
-20.3464
-22.4731
-25.1099
-27.931
-30.5873
-32.7812
-34.3959
-35.4828
-36.1693
-36.5844
-36.8285
-36.9703
-37.0533
-37.1039
-37.1373
-37.1626
-37.1849
-37.2073
-37.2314
-37.2588
-37.2902
-37.3267
-37.3689
-37.4179
-37.4744
-37.5396
-37.6146
-37.7008
-37.7995
-37.9125
-38.0417
-38.1893
-38.358
-38.5507
-38.7711
-39.0237
-39.3137
-39.6481
-40.0359
-40.4891
-41.0241
-41.6649
-42.4461
-43.4191
-44.6605
-46.2829
-48.4526
-51.4219
-55.6327
-18.9163
-20.1714
-22.2188
-24.7687
-27.5046
-30.0873
-32.2276
-33.8087
-34.8764
-35.5524
-35.9619
-36.203
-36.3432
-36.4252
-36.4749
-36.5078
-36.5324
-36.554
-36.5756
-36.5988
-36.6251
-36.6553
-36.6903
-36.7308
-36.7778
-36.8321
-36.8946
-36.9667
-37.0493
-37.1441
-37.2526
-37.3766
-37.5182
-37.6801
-37.865
-38.0764
-38.3185
-38.5966
-38.9171
-39.2887
-39.7226
-40.2348
-40.8478
-41.5947
-42.5242
-43.7083
-45.2522
-47.3085
-50.1024
-54.0182
-18.8091
-20.0109
-21.9856
-24.4559
-27.1136
-29.6291
-31.7205
-33.2708
-34.3211
-34.9877
-35.3922
-35.6306
-35.7693
-35.8503
-35.8994
-35.9317
-35.9558
-35.9767
-35.9975
-36.02
-36.0453
-36.0743
-36.108
-36.147
-36.1922
-36.2444
-36.3046
-36.3739
-36.4534
-36.5446
-36.6489
-36.7682
-36.9045
-37.0602
-37.238
-37.4412
-37.674
-37.9412
-38.2492
-38.606
-39.0226
-39.5142
-40.1022
-40.8182
-41.7084
-42.841
-44.3146
-46.2695
-48.9072
-52.5619
-18.7108
-19.8637
-21.7715
-24.1684
-26.7546
-29.2084
-31.255
-32.7773
-33.8116
-34.4697
-34.8697
-35.1057
-35.243
-35.3233
-35.3718
-35.4035
-35.4271
-35.4475
-35.4676
-35.4893
-35.5137
-35.5417
-35.5742
-35.6118
-35.6553
-35.7057
-35.7637
-35.8305
-35.9072
-35.9951
-36.0957
-36.2107
-36.3421
-36.4921
-36.6635
-36.8594
-37.0836
-37.341
-37.6376
-37.9811
-38.382
-38.8549
-39.4203
-40.1083
-40.9631
-42.0492
-43.4595
-45.3234
-47.8216
-51.2438
-18.6206
-19.7286
-21.5747
-23.904
-26.4243
-28.8215
-30.827
-32.3235
-33.3434
-33.9937
-34.3896
-34.6236
-34.7597
-34.8392
-34.8872
-34.9184
-34.9415
-34.9614
-34.981
-35.0019
-35.0255
-35.0526
-35.0839
-35.1203
-35.1624
-35.211
-35.2671
-35.3316
-35.4057
-35.4906
-35.5878
-35.6989
-35.8258
-35.9707
-36.1362
-36.3254
-36.5419
-36.7903
-37.0765
-37.4079
-37.7946
-38.2504
-38.7953
-39.458
-40.2807
-41.3248
-42.6779
-44.4599
-46.8327
-50.0472
-18.5379
-19.6043
-21.3935
-23.6603
-26.1199
-28.465
-30.4328
-31.9058
-32.9123
-33.5557
-33.948
-34.18
-34.315
-34.3939
-34.4414
-34.4723
-34.4949
-34.5143
-34.5333
-34.5537
-34.5765
-34.6027
-34.6331
-34.6682
-34.709
-34.756
-34.8103
-34.8728
-34.9445
-35.0267
-35.1208
-35.2283
-35.3511
-35.4914
-35.6515
-35.8345
-36.044
-36.2842
-36.5609
-36.8813
-37.255
-37.6954
-38.2216
-38.8612
-39.6547
-40.6608
-41.962
-43.67
-45.9298
-48.9579
-18.462
-19.4901
-21.2265
-23.4356
-25.8391
-28.1363
-30.0693
-31.5206
-32.515
-33.152
-33.541
-33.7713
-33.9055
-33.9838
-34.0309
-34.0613
-34.0836
-34.1026
-34.1211
-34.1408
-34.163
-34.1884
-34.2178
-34.2519
-34.2914
-34.337
-34.3897
-34.4503
-34.5198
-34.5995
-34.6907
-34.795
-34.9141
-35.05
-35.2053
-35.3826
-35.5856
-35.8184
-36.0865
-36.3968
-36.7586
-37.1849
-37.694
-38.3126
-39.0795
-40.0509
-41.3051
-42.946
-45.1037
-47.9638
-18.3924
-19.3849
-21.0725
-23.2281
-25.5797
-27.8326
-29.7336
-31.165
-32.1483
-32.7795
-33.1656
-33.3944
-33.5277
-33.6055
-33.6522
-33.6824
-33.7043
-33.7228
-33.7409
-33.7601
-33.7816
-33.8063
-33.8349
-33.868
-33.9064
-33.9507
-34.0018
-34.0606
-34.1282
-34.2056
-34.2942
-34.3955
-34.5111
-34.6432
-34.7939
-34.9661
-35.1632
-35.3892
-35.6493
-35.9503
-36.3013
-36.7147
-37.2082
-37.8076
-38.5502
-39.49
-40.7013
-42.2812
-44.3463
-47.0545
-18.3286
-19.2881
-20.9303
-23.0362
-25.3398
-27.5518
-29.4232
-30.8363
-31.8095
-32.4354
-32.8189
-33.0463
-33.1789
-33.2563
-33.3027
-33.3325
-33.3541
-33.3723
-33.3899
-33.4087
-33.4296
-33.4537
-33.4814
-33.5136
-33.5509
-33.5941
-33.6438
-33.701
-33.7667
-33.8421
-33.9282
-34.0268
-34.1393
-34.2677
-34.4143
-34.5818
-34.7734
-34.9931
-35.246
-35.5385
-35.8795
-36.2811
-36.7603
-37.3421
-38.0625
-38.9733
-40.1455
-41.6698
-43.6507
-46.2211
-18.2701
-19.199
-20.799
-22.8587
-25.1178
-27.2919
-29.136
-30.5322
-31.4962
-32.1173
-32.4984
-32.7246
-32.8566
-32.9336
-32.9797
-33.0093
-33.0306
-33.0484
-33.0657
-33.084
-33.1044
-33.1278
-33.1549
-33.1862
-33.2226
-33.2646
-33.313
-33.3688
-33.4328
-33.5062
-33.5901
-33.6861
-33.7957
-33.9208
-34.0636
-34.2267
-34.4133
-34.6273
-34.8735
-35.1582
-35.4901
-35.8808
-36.3469
-36.9125
-37.6125
-38.4968
-39.6333
-41.1067
-43.011
-45.4559
-18.2165
-19.1168
-20.6776
-22.6944
-24.9121
-27.0512
-28.87
-30.2507
-31.2061
-31.8229
-32.2019
-32.4271
-32.5585
-32.6352
-32.681
-32.7103
-32.7314
-32.749
-32.7658
-32.7837
-32.8036
-32.8265
-32.8529
-32.8835
-32.9189
-32.9599
-33.0072
-33.0616
-33.124
-33.1956
-33.2775
-33.3712
-33.4781
-33.6001
-33.7394
-33.8985
-34.0805
-34.2891
-34.5292
-34.8068
-35.1302
-35.5108
-35.9649
-36.5156
-37.1969
-38.0569
-39.1605
-40.5875
-42.4217
-44.7522
-18.1674
-19.0411
-20.5653
-22.5421
-24.7214
-26.8279
-28.6235
-29.9898
-30.9375
-31.5504
-31.9274
-32.1517
-32.2827
-32.359
-32.4046
-32.4337
-32.4545
-32.4718
-32.4884
-32.5059
-32.5254
-32.5477
-32.5735
-32.6033
-32.638
-32.678
-32.7242
-32.7773
-32.8383
-32.9082
-32.9883
-33.0797
-33.1842
-33.3034
-33.4395
-33.5949
-33.7726
-33.9763
-34.2107
-34.4817
-34.7973
-35.1687
-35.6116
-36.1487
-36.8128
-37.6503
-38.7238
-40.1082
-41.8783
-44.1041
-18.1224
-18.9714
-20.4615
-22.401
-24.5445
-26.6209
-28.3948
-29.7479
-30.6885
-31.2978
-31.6732
-31.8967
-32.0273
-32.1033
-32.1488
-32.1776
-32.1982
-32.2153
-32.2315
-32.2486
-32.2677
-32.2895
-32.3148
-32.344
-32.3779
-32.417
-32.4622
-32.5141
-32.5738
-32.6422
-32.7205
-32.81
-32.9121
-33.0287
-33.1618
-33.3138
-33.4876
-33.6868
-33.9159
-34.1808
-34.4892
-34.8521
-35.2848
-35.8092
-36.4574
-37.2743
-38.3201
-39.6653
-41.3767
-43.5064
-18.0813
-18.9071
-20.3653
-22.27
-24.3802
-26.4286
-28.1825
-29.5235
-30.4576
-31.0637
-31.4376
-31.6604
-31.7906
-31.8665
-31.9117
-31.9405
-31.9608
-31.9776
-31.9936
-32.0104
-32.0291
-32.0505
-32.0752
-32.1038
-32.1369
-32.1753
-32.2195
-32.2704
-32.3288
-32.3958
-32.4725
-32.5601
-32.6601
-32.7743
-32.9046
-33.0534
-33.2236
-33.4186
-33.6428
-33.9021
-34.2039
-34.559
-34.9821
-35.4949
-36.1284
-36.9263
-37.9465
-39.2558
-40.9132
-42.9546
-18.0438
-18.8478
-20.2763
-22.1486
-24.2277
-26.2501
-27.9855
-29.3152
-30.2433
-30.8466
-31.2192
-31.4414
-31.5713
-31.647
-31.6921
-31.7207
-31.7409
-31.7575
-31.7732
-31.7897
-31.808
-31.829
-31.8532
-31.8812
-31.9137
-31.9513
-31.9947
-32.0446
-32.1019
-32.1675
-32.2427
-32.3286
-32.4267
-32.5386
-32.6664
-32.8122
-32.979
-33.1701
-33.3899
-33.6439
-33.9396
-34.2874
-34.7017
-35.2037
-35.8236
-36.604
-37.6006
-38.8767
-40.4845
-42.4447
-18.0096
-18.7933
-20.1939
-22.0358
-24.086
-26.0842
-27.8024
-29.1219
-30.0446
-30.6453
-31.0167
-31.2384
-31.3681
-31.4437
-31.4886
-31.517
-31.5371
-31.5535
-31.5689
-31.5852
-31.6032
-31.6237
-31.6475
-31.675
-31.7069
-31.7438
-31.7863
-31.8353
-31.8915
-31.956
-32.0297
-32.114
-32.2103
-32.3202
-32.4455
-32.5887
-32.7524
-32.9399
-33.1555
-33.4046
-33.6947
-34.0357
-34.4419
-34.9339
-35.5413
-36.3054
-37.2802
-38.5257
-40.0878
-41.9731
-17.9784
-18.743
-20.1176
-21.9311
-23.9544
-25.93
-27.6324
-28.9423
-29.8601
-30.4585
-30.8289
-31.0502
-31.1797
-31.2552
-31.3
-31.3283
-31.3482
-31.3644
-31.3797
-31.3956
-31.4133
-31.4335
-31.4568
-31.4839
-31.5152
-31.5514
-31.5932
-31.6413
-31.6966
-31.7599
-31.8324
-31.9152
-32.0098
-32.1177
-32.2409
-32.3815
-32.5423
-32.7264
-32.9382
-33.1829
-33.4676
-33.8024
-34.201
-34.6838
-35.2795
-36.0286
-36.9832
-38.2006
-39.7205
-41.5367
-17.95
-18.6968
-20.0469
-21.8339
-23.832
-25.7867
-27.4744
-28.7755
-29.6888
-30.2852
-30.6548
-30.8757
-31.0051
-31.0804
-31.1252
-31.1534
-31.1731
-31.1892
-31.2042
-31.2199
-31.2373
-31.2572
-31.2802
-31.3067
-31.3375
-31.3732
-31.4142
-31.4616
-31.5159
-31.5782
-31.6494
-31.7309
-31.8239
-31.93
-32.0512
-32.1894
-32.3475
-32.5286
-32.7368
-32.9773
-33.2571
-33.5861
-33.9777
-34.4519
-35.0368
-35.772
-36.7079
-37.8992
-39.3802
-41.1324
-17.9242
-18.6543
-19.9815
-21.7436
-23.7182
-25.6535
-27.3275
-28.6206
-29.5298
-30.1244
-30.4933
-30.714
-30.8432
-30.9185
-30.9632
-30.9913
-31.0109
-31.0268
-31.0417
-31.0571
-31.0743
-31.0939
-31.1164
-31.1426
-31.1729
-31.208
-31.2484
-31.295
-31.3484
-31.4097
-31.4799
-31.5601
-31.6516
-31.7561
-31.8753
-32.0114
-32.167
-32.3452
-32.55
-32.7867
-33.062
-33.3855
-33.7707
-34.2369
-34.8118
-35.534
-36.4527
-37.6199
-39.0649
-40.7579
-17.9008
-18.6151
-19.9209
-21.6597
-23.6124
-25.5296
-27.191
-28.4768
-29.3823
-29.9753
-30.3436
-30.5641
-30.6932
-30.7685
-30.8131
-30.8411
-30.8607
-30.8764
-30.8911
-30.9063
-30.9232
-30.9425
-30.9648
-30.9905
-31.0204
-31.0549
-31.0948
-31.1406
-31.1933
-31.2537
-31.3228
-31.4018
-31.492
-31.5949
-31.7124
-31.8465
-31.9997
-32.1752
-32.377
-32.61
-32.8811
-33.1997
-33.5788
-34.0376
-34.6032
-35.3134
-36.216
-37.3609
-38.7727
-40.4108
-17.8797
-18.5792
-19.8648
-21.5819
-23.514
-25.4144
-27.0642
-28.3432
-29.2454
-29.837
-30.2048
-30.4252
-30.5543
-30.6295
-30.6741
-30.7021
-30.7215
-30.7371
-30.7516
-30.7667
-30.7834
-30.8024
-30.8243
-30.8497
-30.8791
-30.9132
-30.9525
-30.9977
-31.0496
-31.1092
-31.1773
-31.2552
-31.3442
-31.4456
-31.5614
-31.6936
-31.8447
-32.0178
-32.2166
-32.4463
-32.7135
-33.0274
-33.4009
-33.8528
-34.4098
-35.1088
-35.9966
-37.1207
-38.5019
-40.089
-17.8607
-18.5462
-19.8129
-21.5095
-23.4226
-25.3074
-26.9463
-28.2191
-29.1184
-29.7088
-30.0762
-30.2965
-30.4256
-30.5009
-30.5455
-30.5733
-30.5927
-30.6082
-30.6225
-30.6374
-30.6539
-30.6726
-30.6943
-30.7193
-30.7484
-30.782
-30.8207
-30.8653
-30.9166
-30.9754
-31.0426
-31.1195
-31.2072
-31.3074
-31.4217
-31.5521
-31.7012
-31.8719
-32.0681
-32.2947
-32.5582
-32.8677
-33.2361
-33.6816
-34.2305
-34.9192
-35.7931
-36.8981
-38.2509
-39.7907
-17.8436
-18.516
-19.7649
-21.4424
-23.3376
-25.2078
-26.8368
-28.104
-29.0006
-29.5901
-29.9572
-30.1774
-30.3066
-30.3818
-30.4264
-30.4542
-30.4735
-30.4889
-30.5031
-30.5178
-30.5341
-30.5526
-30.574
-30.5987
-30.6274
-30.6605
-30.6988
-30.7429
-30.7935
-30.8515
-30.918
-30.9939
-31.0805
-31.1794
-31.2923
-31.4211
-31.5683
-31.7369
-31.9306
-32.1543
-32.4144
-32.7199
-33.0834
-33.5229
-34.0644
-34.7434
-35.6045
-36.6917
-38.0182
-39.5141
-17.8283
-18.4882
-19.7205
-21.3801
-23.2586
-25.1153
-26.7352
-27.9972
-28.8915
-29.4801
-29.847
-30.0673
-30.1965
-30.2718
-30.3164
-30.3441
-30.3633
-30.3786
-30.3927
-30.4073
-30.4233
-30.4416
-30.4628
-30.4872
-30.5155
-30.5483
-30.5861
-30.6297
-30.6797
-30.737
-30.8027
-30.8777
-30.9634
-31.0611
-31.1726
-31.2999
-31.4454
-31.612
-31.8034
-32.0243
-32.2813
-32.5831
-32.942
-33.3761
-33.9106
-34.5806
-35.4298
-36.5005
-37.8027
-39.2578
-17.8146
-18.4629
-19.6794
-21.3222
-23.1852
-25.0294
-26.6408
-27.8982
-28.7904
-29.3783
-29.7451
-29.9655
-30.0948
-30.1701
-30.2147
-30.2424
-30.2616
-30.2767
-30.2907
-30.3052
-30.3211
-30.3392
-30.36
-30.3842
-30.4122
-30.4446
-30.482
-30.5251
-30.5745
-30.6313
-30.6962
-30.7704
-30.8551
-30.9517
-31.062
-31.1879
-31.3318
-31.4965
-31.6857
-31.9042
-32.1582
-32.4565
-32.8113
-33.2401
-33.7682
-34.4298
-35.2679
-36.3234
-37.603
-39.0203
-17.8025
-18.4397
-19.6415
-21.2686
-23.117
-24.9497
-26.5533
-27.8065
-28.6969
-29.2842
-29.651
-29.8714
-30.0009
-30.0763
-30.1209
-30.1486
-30.1677
-30.1828
-30.1966
-30.2109
-30.2267
-30.2446
-30.2652
-30.2892
-30.3169
-30.3489
-30.3859
-30.4286
-30.4775
-30.5336
-30.5979
-30.6713
-30.7551
-30.8508
-30.9599
-31.0845
-31.2268
-31.3898
-31.577
-31.7932
-32.0445
-32.3395
-32.6904
-33.1144
-33.6364
-34.2903
-35.1182
-36.1594
-37.4182
-38.8002
-17.7918
-18.4186
-19.6065
-21.2189
-23.0538
-24.8756
-26.4721
-27.7215
-28.6103
-29.1973
-29.5641
-29.7847
-29.9143
-29.9898
-30.0344
-30.0621
-30.0811
-30.0961
-30.1099
-30.1241
-30.1397
-30.1574
-30.1779
-30.2015
-30.229
-30.2607
-30.2974
-30.3396
-30.388
-30.4436
-30.5072
-30.5799
-30.6629
-30.7577
-30.8657
-30.9891
-31.13
-31.2914
-31.4768
-31.6907
-31.9395
-32.2315
-32.5787
-32.9983
-33.5147
-34.1614
-34.9796
-36.0077
-37.2472
-38.5965
-17.7824
-18.3994
-19.5743
-21.1728
-22.9951
-24.807
-26.3969
-27.6429
-28.5304
-29.1171
-29.484
-29.7048
-29.8346
-29.9101
-29.9548
-29.9825
-30.0015
-30.0164
-30.0301
-30.0442
-30.0596
-30.0772
-30.0974
-30.1209
-30.1481
-30.1795
-30.2158
-30.2576
-30.3057
-30.3607
-30.4237
-30.4958
-30.578
-30.6719
-30.779
-30.9012
-31.0408
-31.2007
-31.3843
-31.5963
-31.8427
-32.1319
-32.4757
-32.8911
-33.4023
-34.0422
-34.8516
-35.8674
-37.0892
-38.4081
-17.7742
-18.3819
-19.5445
-21.1301
-22.9407
-24.7433
-26.3274
-27.5703
-28.4567
-29.0432
-29.4103
-29.6314
-29.7612
-29.8369
-29.8816
-29.9093
-29.9283
-29.9432
-29.9568
-29.9707
-29.986
-30.0034
-30.0235
-30.0468
-30.0737
-30.1049
-30.1409
-30.1823
-30.2299
-30.2845
-30.347
-30.4184
-30.4999
-30.593
-30.6991
-30.8203
-30.9587
-31.1172
-31.2992
-31.5093
-31.7535
-32.0401
-32.3808
-32.7923
-33.2986
-33.9323
-34.7334
-35.7379
-36.9432
-38.2339
-17.7671
-18.366
-19.5172
-21.0907
-22.8903
-24.6844
-26.263
-27.5032
-28.3887
-28.9752
-29.3426
-29.5639
-29.6939
-29.7697
-29.8145
-29.8422
-29.8611
-29.8759
-29.8895
-29.9033
-29.9185
-29.9358
-29.9557
-29.9788
-30.0055
-30.0364
-30.0721
-30.1132
-30.1604
-30.2146
-30.2765
-30.3474
-30.4283
-30.5206
-30.6258
-30.746
-30.8833
-31.0405
-31.221
-31.4294
-31.6715
-31.9557
-32.2934
-32.7014
-33.2031
-33.831
-34.6243
-35.6184
-36.8085
-38.0731
-17.7611
-18.3517
-19.492
-21.0542
-22.8436
-24.6299
-26.2036
-27.4414
-28.3262
-28.9127
-29.2804
-29.502
-29.6323
-29.7082
-29.753
-29.7807
-29.7996
-29.8144
-29.8278
-29.8416
-29.8567
-29.8738
-29.8936
-29.9165
-29.943
-29.9737
-30.0091
-30.0499
-30.0967
-30.1505
-30.212
-30.2823
-30.3626
-30.4542
-30.5586
-30.6779
-30.8142
-30.9701
-31.1493
-31.356
-31.5963
-31.8782
-32.2132
-32.6178
-33.1153
-33.7378
-34.524
-35.5083
-36.6844
-37.9247
-17.756
-18.3388
-19.4689
-21.0205
-22.8004
-24.5795
-26.1487
-27.3845
-28.2688
-28.8555
-29.2235
-29.4454
-29.5759
-29.652
-29.6968
-29.7246
-29.7434
-29.7582
-29.7715
-29.7852
-29.8002
-29.8172
-29.8368
-29.8596
-29.8859
-29.9163
-29.9515
-29.992
-30.0385
-30.0919
-30.153
-30.2228
-30.3025
-30.3934
-30.4972
-30.6156
-30.7509
-30.9057
-31.0836
-31.2888
-31.5273
-31.8071
-32.1396
-32.5411
-33.0347
-33.6521
-34.4317
-35.407
-36.5701
-37.7881
-17.7518
-18.3271
-19.4477
-20.9894
-22.7606
-24.5331
-26.0982
-27.3323
-28.2161
-28.8031
-29.1715
-29.3937
-29.5245
-29.6007
-29.6456
-29.6734
-29.6922
-29.7069
-29.7203
-29.7338
-29.7487
-29.7656
-29.7851
-29.8077
-29.8338
-29.8641
-29.899
-29.9392
-29.9855
-30.0385
-30.0991
-30.1685
-30.2477
-30.338
-30.4411
-30.5587
-30.6931
-30.8469
-31.0236
-31.2274
-31.4643
-31.7421
-32.0722
-32.4708
-32.9609
-33.5736
-34.347
-35.314
-36.4652
-37.6625
-17.7485
-18.3167
-19.4283
-20.9607
-22.7238
-24.4902
-26.0518
-27.2843
-28.168
-28.7553
-29.1241
-29.3467
-29.4777
-29.5541
-29.5991
-29.6269
-29.6457
-29.6604
-29.6736
-29.6872
-29.702
-29.7188
-29.7381
-29.7606
-29.7865
-29.8166
-29.8513
-29.8913
-29.9372
-29.9899
-30.0502
-30.1191
-30.1978
-30.2876
-30.39
-30.5069
-30.6405
-30.7934
-30.9689
-31.1714
-31.4068
-31.6828
-32.0108
-32.4067
-32.8933
-33.5017
-34.2694
-35.2286
-36.369
-37.5473
-17.7459
-18.3074
-19.4106
-20.9344
-22.6899
-24.4508
-26.0091
-27.2404
-28.124
-28.7117
-29.0811
-29.3041
-29.4354
-29.5119
-29.557
-29.5848
-29.6036
-29.6182
-29.6314
-29.6449
-29.6596
-29.6763
-29.6956
-29.7179
-29.7437
-29.7736
-29.8081
-29.8478
-29.8935
-29.9459
-30.0058
-30.0743
-30.1526
-30.2419
-30.3437
-30.4599
-30.5927
-30.7447
-30.9192
-31.1206
-31.3545
-31.6289
-31.9548
-32.3482
-32.8317
-33.4361
-34.1984
-35.1506
-36.2809
-37.4417
-17.744
-18.2992
-19.3944
-20.9101
-22.6587
-24.4145
-25.97
-27.2003
-28.084
-28.6722
-29.0421
-29.2655
-29.3971
-29.4737
-29.5189
-29.5468
-29.5656
-29.5802
-29.5934
-29.6068
-29.6214
-29.638
-29.6572
-29.6793
-29.705
-29.7348
-29.7691
-29.8086
-29.854
-29.9061
-29.9657
-30.0339
-30.1117
-30.2005
-30.3018
-30.4174
-30.5495
-30.7007
-30.8743
-31.0745
-31.3071
-31.5799
-31.904
-32.2951
-32.7757
-33.3763
-34.1338
-35.0794
-36.2005
-37.3453
-17.7427
-18.2919
-19.3796
-20.8879
-22.63
-24.3813
-25.9343
-27.1639
-28.0478
-28.6365
-29.007
-29.2308
-29.3627
-29.4395
-29.4848
-29.5126
-29.5315
-29.546
-29.5592
-29.5725
-29.5871
-29.6036
-29.6227
-29.6447
-29.6703
-29.6999
-29.734
-29.7733
-29.8185
-29.8704
-29.9297
-29.9975
-30.075
-30.1633
-30.2641
-30.3792
-30.5106
-30.661
-30.8337
-31.0329
-31.2643