/*--------------------------------*- C++ -*----------------------------------*\
| =========                 |                                                 |
| \\      /  F ield         | OpenFOAM: The Open Source CFD Toolbox           |
|  \\    /   O peration     | Version:  v1912                                 |
|   \\  /    A nd           | Website:  www.openfoam.com                      |
|    \\/     M anipulation  |                                                 |
\*---------------------------------------------------------------------------*/
FoamFile
{
    version     2.0;
    format      ascii;
    class       surfaceScalarField;
    location    "31536000";
    object      psi_F;
}
// * * * * * * * * * * * * * * * * * * * * * * * * * * * * * * * * * * * * * //

dimensions      [0 1 0 0 0 0 0];


internalField   nonuniform List<scalar> 
8365
(
-158.114
-158
-158.13
-158.316
-158.017
-158.046
-158
-158.006
-158
-158.003
-158
-158.001
-158
-158
-158
-158
-158
-158
-158
-158
-158
-158
-158
-158
-158
-158
-158
-158
-158
-158
-158
-158
-158
-158
-158
-158
-158
-158
-158
-158
-158
-158
-158
-158
-158
-158
-158
-158
-158
-158
-158
-158
-158
-158
-158
-158
-157.995
-158
-157.994
-146.192
-79.6058
-157.995
-1.32492
-2.07168
-1.23534
-1.4625
-0.815662
-1.05123
-0.434908
-0.612833
-0.16007
-0.287362
0.0217413
-0.0607555
0.133419
0.0786102
0.215462
0.164225
0.293116
0.243126
0.368774
0.319577
0.443099
0.394471
0.51641
0.468247
0.588898
0.54111
0.660734
0.613237
0.732044
0.684795
0.802841
0.755868
0.872921
0.826404
0.941246
0.896067
0.963293
-158.202
-157.976
-158.231
-158.565
-158.035
-158.08
-158.008
-158.018
-158.003
-158.007
-158.001
-158.003
-158.001
-158.001
-158
-158
-158
-158
-158
-158
-158
-158
-158
-158
-158
-158
-158
-158
-158
-158
-158
-158
-158
-158
-158
-158
-158
-158
-158
-158
-158
-158
-158
-158
-158
-158
-158
-158
-158
-158
-158
-158
-158
-158
-158
-158
-146.303
-157.999
-146.299
-104.548
-80.4538
-151.338
-2.20137
-3.66956
-1.278
-1.52503
-0.848111
-1.0859
-0.465017
-0.644602
-0.187798
-0.316478
-0.00365791
-0.087536
0.10963
0.0545681
0.192098
0.141086
0.269796
0.220024
0.345483
0.296502
0.419829
0.371417
0.493157
0.445212
0.565659
0.51809
0.637507
0.590227
0.708828
0.661795
0.77964
0.73288
0.849758
0.803436
0.91832
0.873158
0.940782
-158.339
-122.597
-158.413
-158.515
-158.063
-158.144
-158.017
-158.037
-158.006
-158.011
-158.002
-158.004
-158.001
-158.001
-158
-158
-158
-158
-158
-158
-158
-158
-158
-158
-158
-158
-158
-158
-158
-158
-158
-158
-158
-158
-158
-158
-158
-158
-158
-158
-158
-158
-158
-158
-158
-158
-158
-158
-158
-158
-158
-158
-158
-158
-158
-158
-116.513
-157.999
-109.914
-66.4891
-74.6061
-95.6943
-2.98616
-4.8172
-1.33244
-1.60424
-0.882085
-1.12284
-0.495787
-0.677136
-0.215963
-0.346101
-0.0290811
-0.114712
0.0862351
0.0307807
0.169218
0.118448
0.246936
0.197383
0.322642
0.273877
0.397006
0.348807
0.470349
0.422618
0.542863
0.495508
0.614721
0.567655
0.686052
0.639231
0.756881
0.710328
0.827041
0.780907
0.895822
0.850694
0.918672
-123.09
-76.3413
-158.247
-158.138
-158.118
-158.264
-158.031
-158.077
-158.009
-158.017
-158.003
-158.004
-158.001
-158.002
-158
-158.001
-158
-158
-158
-158
-158
-158
-158
-158
-158
-158
-158
-158
-158
-158
-158
-158
-158
-158
-158
-158
-158
-158
-158
-158
-158
-158
-158
-158
-158
-158
-158
-158
-158
-158
-158
-158
-158
-158
-158
-158
-108.052
-157.997
-52.7838
-53.8881
-26.3399
-40.8558
-3.43128
-5.31563
-1.39409
-1.69165
-0.917569
-1.16197
-0.527168
-0.710402
-0.244592
-0.376169
-0.0546201
-0.142366
0.0632007
0.00528965
0.146814
0.0962849
0.224526
0.175192
0.300244
0.251692
0.374621
0.326633
0.447978
0.400456
0.520501
0.473357
0.592366
0.54551
0.663708
0.617094
0.734554
0.688203
0.80476
0.758806
0.873743
0.828662
0.896959
-111.493
-58.782
-158.156
-135.471
-158.222
-158.164
-158.062
-158.145
-158.012
-158.035
-158.003
-158.004
-158.001
-158.001
-158
-158.001
-158
-158
-158
-158
-158
-158
-158
-158
-158
-158
-158
-158
-158
-158
-158
-158
-158
-158
-158
-158
-158
-158
-158
-158
-158
-158
-158
-158
-158
-158
-158
-158
-158
-158
-158
-158
-158
-158
-157.998
-157.99
-103.872
-154.614
-42.0566
-47.0977
-19.8895
-31.1154
-3.57472
-5.46665
-1.45895
-1.78141
-0.954468
-1.2031
-0.559115
-0.744366
-0.273681
-0.406628
-0.0822077
-0.170392
0.0385954
-0.0208051
0.124861
0.0744881
0.202557
0.153443
0.278279
0.229939
0.352666
0.304884
0.426033
0.378718
0.498564
0.451627
0.570436
0.523786
0.641786
0.595376
0.712651
0.666496
0.782905
0.737124
0.852073
0.807052
0.875635
-83.0159
-48.8675
-135.682
-97.2077
-158.089
-149.989
-158.117
-158.091
-158.026
-158.077
-158.002
-158.004
-158.001
-158.002
-158
-158
-158
-158
-158
-158
-158
-158
-158
-158
-158
-158
-158
-158
-158
-158
-158
-158
-158
-158
-158
-158
-158
-158
-158
-158
-158
-158
-158
-158
-158
-158
-158
-158
-158
-158
-158
-158
-157.99
-158
-154.636
-142.031
-97.8935
-128.014
-36.2092
-42.5457
-16.721
-26.0306
-3.67246
-5.5539
-1.52496
-1.87126
-0.99265
-1.246
-0.591587
-0.778994
-0.303075
-0.437433
-0.10875
-0.198627
0.0152973
-0.045666
0.103265
0.0529434
0.181019
0.132123
0.256738
0.208608
0.331131
0.283554
0.404507
0.357396
0.477043
0.430312
0.54892
0.502473
0.620279
0.574068
0.691162
0.645199
0.761465
0.715853
0.830805
0.785853
0.854695
-63.2373
-42.6059
-111.731
-72.769
-150.063
-122.459
-158.051
-154.816
-158.055
-158.051
-158.003
-158.015
-158.001
-158.004
-158
-158
-158
-158
-158
-158
-158
-158
-158
-158
-158
-158
-158
-158
-158
-158
-158
-158
-158
-158
-158
-158
-158
-158
-158
-158
-158
-158
-158
-158
-158
-158
-158
-158
-158
-158
-158
-157.995
-142.183
-157.99
-115.759
-113.559
-72.8915
-93.2636
-32.4013
-39.029
-14.88
-22.9336
-3.75198
-5.61601
-1.5917
-1.96082
-1.03199
-1.29046
-0.624544
-0.81425
-0.332719
-0.468546
-0.135304
-0.227014
-0.0078119
-0.0705572
0.0819934
0.0316078
0.159902
0.111222
0.235614
0.187692
0.310009
0.262632
0.383391
0.336481
0.455931
0.409401
0.527811
0.481564
0.599178
0.553162
0.67008
0.624304
0.740431
0.694984
0.809931
0.765055
0.834133
-52.2366
-38.2905
-83.7494
-59.2147
-127.416
-91.7287
-154.845
-133.519
-158.011
-154.328
-158.015
-158.008
-158.003
-158.002
-158
-158.001
-158
-158
-158
-158
-158
-158
-158
-158
-158
-158
-158
-158
-158
-158
-158
-158
-158
-158
-158
-158
-158
-158
-158
-158
-158
-158
-158
-158
-158
-158
-158
-158
-157.995
-157.999
-157.986
-149.91
-129.481
-143.281
-91.2842
-92.8372
-59.5215
-74.636
-29.5866
-36.143
-13.6804
-20.8423
-3.8242
-5.66882
-1.65898
-2.04999
-1.07236
-1.33632
-0.657951
-0.850097
-0.362573
-0.499934
-0.162027
-0.255513
-0.0309294
-0.0956923
0.0610254
0.0104518
0.139198
0.0907316
0.214897
0.167181
0.289291
0.242111
0.362678
0.315965
0.43522
0.388888
0.507101
0.46105
0.578474
0.53265
0.649394
0.603802
0.719794
0.674508
0.789441
0.744649
0.813941
-45.3308
-35.1207
-67.3416
-50.7338
-98.0954
-73.6187
-133.197
-103.564
-154.358
-134.872
-157.995
-149.812
-158
-156.596
-158.001
-157.994
-158
-157.994
-158
-157.995
-158
-157.996
-158
-157.996
-158
-157.996
-158
-157.997
-158
-157.997
-158
-157.997
-158
-157.997
-158
-157.998
-158
-157.998
-158
-157.998
-158
-157.998
-158
-157.998
-158
-157.997
-157.999
-157.996
-149.986
-156.781
-135.408
-129.599
-106.841
-116.809
-76.3236
-79.2359
-51.3312
-63.2516
-27.4182
-33.7697
-12.8383
-19.3309
-3.89398
-5.71945
-1.72672
-2.13876
-1.11368
-1.38342
-0.691775
-0.886498
-0.392604
-0.531567
-0.188936
-0.284091
-0.0541025
-0.121086
0.0403442
-0.0141133
0.118897
0.0706107
0.194579
0.147067
0.268969
0.221984
0.342358
0.29584
0.414901
0.368765
0.486782
0.440924
0.558161
0.512525
0.629098
0.583686
0.699545
0.654417
0.769329
0.724626
0.794114
-40.5665
-32.687
-57.103
-44.9149
-79.2572
-62.2498
-105.489
-83.9867
-130.541
-108.041
-148.498
-128.244
-156.602
-141.206
-157.987
-146.519
-157.99
-148.786
-157.991
-150.091
-157.992
-150.867
-157.993
-151.363
-157.993
-151.73
-157.993
-152.049
-157.994
-152.373
-157.994
-152.723
-157.995
-153.108
-157.995
-153.516
-157.996
-153.915
-157.996
-154.24
-157.996
-154.382
-157.995
-154.15
-157.993
-153.167
-156.788
-150.485
-136.516
-142.243
-111.219
-108.554
-89.3619
-96.8984
-66.2545
-69.656
-45.7405
-55.5575
-25.6979
-31.8008
-12.2176
-18.187
-3.96361
-5.77125
-1.79485
-2.22719
-1.15586
-1.43163
-0.725982
-0.923416
-0.422782
-0.563418
-0.215997
-0.312721
-0.0808557
-0.14658
0.0163691
-0.0389768
0.0989597
0.0507499
0.174651
0.12734
0.249034
0.202241
0.322425
0.276098
0.394967
0.349023
0.466846
0.421177
0.538229
0.492778
0.609184
0.563948
0.679677
0.634704
0.749588
0.704978
0.774645
-37.0668
-30.757
-50.1245
-40.667
-67.0888
-54.4712
-86.7076
-71.2092
-105.966
-89.4427
-121.198
-105.427
-131.351
-116.684
-137.502
-123.832
-141.04
-128.054
-143.101
-130.524
-144.361
-132.005
-145.215
-132.954
-145.895
-133.654
-146.532
-134.261
-147.199
-134.874
-147.928
-135.537
-148.713
-136.265
-149.512
-137.038
-150.229
-137.795
-150.691
-138.414
-150.602
-138.682
-149.399
-138.236
-145.77
-136.363
-136.126
-131.336
-114.48
-118.732
-94.3854
-93.4404
-77.301
-83.2865
-59.024
-62.56
-41.6545
-50.0035
-24.3024
-30.1503
-11.7449
-17.2929
-4.03419
-5.82576
-1.86335
-2.31532
-1.19881
-1.48084
-0.760541
-0.960815
-0.453083
-0.59546
-0.24306
-0.34138
-0.104489
-0.172058
-0.00440896
-0.0608205
0.0793076
0.031084
0.155106
0.107992
0.22948
0.182875
0.302871
0.256732
0.375409
0.329655
0.447285
0.401803
0.518672
0.473403
0.589644
0.54458
0.66018
0.61536
0.730209
0.685696
0.755528
-34.3814
-29.1881
-45.0593
-37.4275
-58.6674
-48.8115
-74.0582
-62.3068
-89.0566
-76.7421
-101.094
-89.4293
-109.363
-98.5593
-114.59
-104.487
-117.748
-108.113
-119.64
-110.28
-120.81
-111.59
-121.605
-112.431
-122.233
-113.047
-122.817
-113.577
-123.426
-114.105
-124.089
-114.674
-124.805
-115.298
-125.537
-115.961
-126.196
-116.611
-126.621
-117.142
-126.533
-117.37
-125.416
-116.976
-122.142
-115.35
-114.14
-111.09
-97.8424
-101.109
-82.4489
-82.4315
-68.6236
-73.5676
-53.5884
-57.1037
-38.5273
-45.8057
-23.1511
-28.7529
-11.3771
-16.578
-4.10624
-5.88363
-1.9322
-2.40322
-1.24246
-1.53096
-0.795421
-0.998659
-0.483484
-0.627671
-0.270133
-0.37005
-0.128176
-0.197521
-0.0251409
-0.082805
0.059943
0.0116092
0.135934
0.089014
0.210299
0.163878
0.283688
0.237733
0.356222
0.310655
0.428093
0.382795
0.499483
0.454391
0.570469
0.525575
0.641048
0.596378
0.711186
0.666774
0.736755
-32.2534
-27.8876
-41.2144
-34.8756
-52.5064
-44.5089
-65.0716
-55.7637
-77.2214
-67.6315
-87.0215
-78.0647
-93.8236
-85.6536
-98.1587
-90.6175
-100.797
-93.6736
-102.386
-95.5082
-103.369
-96.6195
-104.032
-97.3305
-104.55
-97.8453
-105.025
-98.2822
-105.515
-98.7125
-106.045
-99.1721
-106.617
-99.6738
-107.199
-100.205
-107.723
-100.726
-108.058
-101.15
-107.98
-101.328
-107.075
-101.002
-104.457
-99.6782
-98.203
-96.2574
-85.8064
-88.4215
-73.6297
-74.1277
-62.1064
-66.3158
-49.3591
-52.7845
-36.0534
-42.5232
-22.1885
-27.5592
-11.0872
-15.9971
-4.17994
-5.94502
-2.00136
-2.49092
-1.28676
-1.58189
-0.830593
-1.03691
-0.513964
-0.660028
-0.297194
-0.398714
-0.151936
-0.222947
-0.0458683
-0.104944
0.0408521
-0.0105612
0.117127
0.0703739
0.191482
0.145242
0.264869
0.219096
0.337397
0.292014
0.409262
0.364144
0.480653
0.435736
0.551654
0.506926
0.622273
0.577751
0.692512
0.648204
0.718322
-30.5254
-26.7924
-38.1973
-32.8148
-47.8085
-41.1295
-58.3838
-50.7572
-68.5529
-60.8032
-76.789
-69.6436
-82.549
-76.1293
-86.2397
-80.3971
-88.4951
-83.0364
-89.855
-84.6253
-90.6956
-85.5878
-91.2589
-86.2013
-91.6934
-86.6409
-92.0864
-87.009
-92.4873
-87.3671
-92.9188
-87.7463
-93.3816
-88.1581
-93.852
-88.5933
-94.2737
-89.0181
-94.5416
-89.3632
-94.4716
-89.5052
-93.7257
-89.2294
-91.5946
-88.1297
-86.5805
-85.3195
-76.8236
-78.9892
-66.8746
-67.6647
-57.0395
-60.7089
-45.9791
-49.2855
-34.047
-39.8884
-21.3752
-26.5316
-10.857
-15.5195
-4.25532
-6.00987
-2.07082
-2.57846
-1.33164
-1.63355
-0.866027
-1.07554
-0.544504
-0.692507
-0.324224
-0.427357
-0.175741
-0.248316
-0.069425
-0.127124
0.0191559
-0.0328427
0.098655
0.0519864
0.173023
0.12696
0.246407
0.200813
0.318927
0.273726
0.390784
0.345844
0.462176
0.41743
0.53319
0.488626
0.603848
0.559472
0.674179
0.629977
0.700222
-29.0947
-25.8583
-35.7688
-31.1174
-44.1115
-38.4077
-53.223
-46.8068
-61.9533
-55.5055
-69.0535
-63.1732
-74.0538
-68.8427
-77.2745
-72.5959
-79.2499
-74.9272
-80.4429
-76.3345
-81.1793
-77.187
-81.6696
-77.7284
-82.0434
-78.1125
-82.3771
-78.4303
-82.714
-78.7357
-83.0743
-79.0565
-83.4592
-79.4033
-83.8495
-79.7687
-84.1983
-80.1245
-84.418
-80.4125
-84.3541
-80.5284
-83.7234
-80.2897
-81.9414
-79.3531
-77.8071
-76.9853
-69.8927
-71.7349
-61.5469
-62.5025
-52.9913
-56.25
-43.2197
-46.3976
-32.388
-37.7292
-20.6822
-25.6409
-10.674
-15.1235
-4.33232
-6.07798
-2.14057
-2.66587
-1.37704
-1.68588
-0.901695
-1.1145
-0.575085
-0.725087
-0.351206
-0.455964
-0.199485
-0.27361
-0.0903535
-0.149261
0.000158846
-0.0525385
0.0804552
0.0337993
0.154913
0.109023
0.228295
0.182875
0.300806
0.255784
0.372654
0.327888
0.444044
0.399468
0.515071
0.470668
0.585764
0.541533
0.656182
0.612089
0.682449
-27.8918
-25.053
-33.7742
-29.6969
-41.1299
-36.1714
-49.1261
-43.6138
-56.772
-51.2819
-63.0167
-58.0557
-67.4442
-63.1011
-70.3113
-66.4618
-72.0764
-68.5589
-73.1442
-69.8281
-73.8025
-70.5972
-74.2382
-71.084
-74.5668
-71.4264
-74.8566
-71.7062
-75.1463
-71.9721
-75.4541
-72.2493
-75.7818
-72.5476
-76.1133
-72.8611
-76.4088
-73.1658
-76.5933
-73.4115
-76.5343
-73.5081
-75.9889
-73.2974
-74.4642
-72.4831
-70.9746
-70.4455
-64.3942
-65.9957
-57.2443
-58.2909
-49.686
-52.6234
-40.9276
-43.9769
-30.9947
-35.9295
-20.0876
-24.8643
-10.5288
-14.7934
-4.41082
-6.14908
-2.21056
-2.75316
-1.42292
-1.7388
-0.937568
-1.15376
-0.60569
-0.757746
-0.378126
-0.484521
-0.223172
-0.298816
-0.111258
-0.171355
-0.018728
-0.0722506
0.062528
0.015808
0.137145
0.0914226
0.210525
0.165278
0.283026
0.238181
0.354863
0.31027
0.426252
0.381841
0.49729
0.453045
0.568017
0.523928
0.638514
0.59453
0.664997
-26.8673
-24.3524
-32.1091
-28.4925
-38.6774
-34.304
-45.7995
-40.9824
-52.6031
-47.8405
-58.1836
-53.9132
-62.1662
-58.4681
-64.7594
-61.5211
-66.3621
-63.4351
-67.3334
-64.5967
-67.9315
-65.3008
-68.3254
-65.7451
-68.6193
-66.0551
-68.8756
-66.3056
-69.1293
-66.5411
-69.3974
-66.7848
-69.6818
-67.0459
-69.9689
-67.3197
-70.2242
-67.5853
-70.3822
-67.7988
-70.3271
-67.8808
-69.8469
-67.6919
-68.5179
-66.9719
-65.5158
-65.1883
-59.9326
-61.3497
-53.7018
-54.7945
-46.939
-49.619
-38.9962
-41.9217
-29.8098
-34.4086
-19.5747
-24.1836
-10.4147
-14.5171
-4.4907
-6.2229
-2.28077
-2.84033
-1.46922
-1.79224
-0.973618
-1.1933
-0.636301
-0.790464
-0.404969
-0.513013
-0.246785
-0.32392
-0.132159
-0.193384
-0.0375452
-0.0920025
0.0448615
-0.00400332
0.119713
0.0741371
0.193091
0.148014
0.265581
0.22091
0.337405
0.292982
0.408792
0.364544
0.47984
0.435751
0.550598
0.506651
0.621169
0.577296
0.64786
-25.9856
-23.7385
-30.7001
-27.46
-36.6275
-32.7236
-43.0482
-38.7795
-49.1814
-44.9862
-54.2333
-50.4961
-57.8618
-54.6566
-60.2375
-57.4628
-61.7116
-59.2303
-62.6066
-60.306
-63.1573
-60.9583
-63.5181
-61.3689
-63.7849
-61.6531
-64.0149
-61.8805
-64.2406
-62.0919
-64.4777
-62.3093
-64.7284
-62.5411
-64.981
-62.7837
-65.2051
-63.0186
-65.3427
-63.2069
-65.2909
-63.2776
-64.8618
-63.1061
-63.6858
-62.4609
-61.0624
-60.8776
-56.2448
-57.5174
-50.7383
-51.8494
-44.6225
-47.0922
-37.3489
-40.1576
-28.7916
-33.1082
-19.13
-23.5843
-10.3262
-14.2855
-4.5718
-6.29914
-2.35117
-2.92738
-1.5159
-1.84616
-1.00982
-1.23306
-0.666901
-0.82322
-0.431723
-0.541427
-0.270307
-0.348911
-0.15304
-0.215332
-0.058274
-0.111723
0.025447
-0.023823
0.102592
0.0571018
0.175987
0.131075
0.248465
0.203965
0.320275
0.276019
0.391657
0.34757
0.462715
0.418779
0.533502
0.489694
0.60414
0.56038
0.631032
-25.2198
-23.1969
-29.4944
-26.5666
-34.8912
-31.371
-40.7382
-36.9107
-46.3266
-42.5837
-50.949
-47.6332
-54.2898
-51.4705
-56.4893
-54.0748
-57.8594
-55.7228
-58.6929
-56.7286
-59.2054
-57.3389
-59.5397
-57.722
-59.7847
-57.9855
-59.9936
-58.1941
-60.1969
-58.3862
-60.4093
-58.5823
-60.6333
-58.7907
-60.8584
-59.0082
-61.0577
-59.2186
-61.1792
-59.3866
-61.1302
-59.4484
-60.7423
-59.2911
-59.6887
-58.7065
-57.366
-57.2848
-53.1498
-54.3068
-48.2259
-49.3381
-42.6451
-44.9401
-35.9296
-38.6292
-27.9089
-31.9854
-18.7432
-23.0546
-10.2591
-14.0912
-4.65397
-6.37751
-2.42173
-3.01428
-1.5629
-1.90048
-1.04614
-1.27303
-0.697471
-0.855991
-0.458375
-0.56975
-0.293725
-0.373778
-0.173827
-0.237181
-0.0771021
-0.131353
0.00798901
-0.0417334
0.0857361
0.0402713
0.159205
0.114455
0.23167
0.18734
0.303465
0.259373
0.374842
0.330912
0.445908
0.402122
0.516722
0.473052
0.587422
0.543775
0.614508
-24.5497
-22.7166
-28.4526
-25.7873
-33.4039
-30.2022
-38.7739
-35.3079
-43.912
-40.5365
-48.1796
-45.2031
-51.2826
-48.7713
-53.3366
-51.2078
-54.6212
-52.7567
-55.4042
-53.7047
-55.8854
-54.2803
-56.1979
-54.6409
-56.4251
-54.8872
-56.617
-55.0804
-56.8021
-55.2566
-56.9944
-55.4354
-57.1966
-55.6245
-57.3995
-55.8216
-57.5788
-56.0119
-57.6873
-56.1635
-57.6407
-56.2181
-57.2865
-56.0726
-56.3328
-55.5379
-54.2536
-54.2488
-50.5188
-51.5817
-46.0717
-47.1745
-40.9396
-43.0873
-34.6961
-37.2944
-27.1381
-31.0077
-18.4056
-22.5849
-10.2101
-13.9284
-4.73707
-6.45773
-2.4924
-3.10103
-1.61018
-1.95515
-1.08255
-1.31316
-0.727995
-0.888757
-0.484913
-0.597968
-0.317024
-0.398508
-0.19452
-0.258918
-0.0958162
-0.150892
-0.00929546
-0.0595462
0.0691391
0.0236368
0.142738
0.0981458
0.215191
0.171028
0.286969
0.243039
0.35834
0.314565
0.429414
0.385776
0.500253
0.456718
0.571009
0.527476
0.598282
-23.9595
-22.2885
-27.5451
-25.1029
-32.1177
-29.1839
-37.0856
-33.92
-41.8461
-38.7735
-45.8161
-43.1174
-48.7196
-46.4586
-50.6519
-48.7535
-51.865
-50.2192
-52.606
-51.1187
-53.0612
-51.6653
-53.3557
-52.007
-53.5682
-52.239
-53.7459
-52.4194
-53.9159
-52.5825
-54.0916
-52.7467
-54.2759
-52.92
-54.4605
-53.1001
-54.6232
-53.2737
-54.721
-53.4117
-54.6766
-53.4603
-54.3505
-53.3248
-53.4797
-52.832
-51.6008
-51.6535
-48.2578
-49.243
-44.2069
-45.2938
-39.4555
-41.4775
-33.6158
-36.1206
-26.4606
-30.1503
-18.1103
-22.1671
-10.1764
-13.7924
-4.82094
-6.53955
-2.56315
-3.1876
-1.6577
-2.01011
-1.11903
-1.35342
-0.758456
-0.921497
-0.511325
-0.626069
-0.340193
-0.423092
-0.215104
-0.280531
-0.114454
-0.170322
-0.0264594
-0.0773141
0.0527907
0.00657002
0.126581
0.082138
0.199022
0.155024
0.270781
0.22701
0.342146
0.298522
0.413226
0.369733
0.484087
0.440687
0.554894
0.511476
0.582349
-23.4367
-21.9054
-26.7489
-24.4983
-30.9962
-28.2903
-35.6211
-32.7084
-40.0609
-37.2417
-43.7783
-41.3103
-46.5124
-44.4577
-48.3415
-46.6319
-49.4942
-48.0267
-50.1997
-48.8851
-50.633
-49.4072
-50.9124
-49.7329
-51.1124
-49.9529
-51.2783
-50.1225
-51.4356
-50.2744
-51.5975
-50.4265
-51.7668
-50.5863
-51.9361
-50.7521
-52.085
-50.9118
-52.1739
-51.0383
-52.1314
-51.082
-51.829
-50.955
-51.028
-50.4978
-49.3163
-49.4127
-46.2967
-47.2169
-42.579
-43.6462
-38.1543
-40.0678
-32.6636
-35.0819
-25.8621
-29.3936
-17.8515
-21.7946
-10.1558
-13.6793
-4.90544
-6.62271
-2.63392
-3.27394
-1.7054
-2.06531
-1.15555
-1.39377
-0.788836
-0.954191
-0.537599
-0.654038
-0.363222
-0.447519
-0.235564
-0.302007
-0.133015
-0.18963
-0.0441257
-0.0950191
0.0360679
-0.0107106
0.110723
0.0663939
0.183155
0.139321
0.254895
0.211281
0.326252
0.282778
0.397337
0.353988
0.468219
0.424952
0.539073
0.495769
0.566704
-22.9712
-21.5613
-26.046
-23.9612
-30.0113
-27.5013
-34.3405
-31.6432
-38.5051
-35.9002
-42.0057
-39.7318
-44.5945
-42.712
-46.3351
-44.7822
-47.4361
-46.1161
-48.1114
-46.9392
-48.5261
-47.4403
-48.7926
-47.7525
-48.9821
-47.9622
-49.1379
-48.1225
-49.2846
-48.2649
-49.4347
-48.4067
-49.5912
-48.555
-49.7475
-48.7087
-49.8849
-48.8565
-49.9663
-48.9733
-49.9254
-49.0129
-49.6434
-48.8932
-48.9017
-48.4666
-47.3312
-47.4613
-44.5819
-45.4472
-41.1479
-42.1931
-37.0058
-38.8249
-31.8195
-34.1579
-25.3309
-28.7223
-17.6245
-21.4618
-10.1464
-13.586
-4.99044
-6.70697
-2.70469
-3.36002
-1.75325
-2.1207
-1.19208
-1.43419
-0.819119
-0.986816
-0.563722
-0.681862
-0.386098
-0.471779
-0.25589
-0.323336
-0.151468
-0.208805
-0.0614481
-0.11262
0.0197622
-0.027352
0.0951316
0.0508681
0.167587
0.123912
0.239305
0.195846
0.310654
0.267326
0.381743
0.338535
0.452643
0.409509
0.52354
0.480352
0.55134
-22.555
-21.2512
-25.4221
-23.482
-29.141
-26.8008
-33.213
-30.7009
-37.1391
-34.7174
-40.452
-38.343
-42.9149
-41.1778
-44.579
-43.1576
-45.6354
-44.4386
-46.2846
-45.2313
-46.6833
-45.7143
-46.9388
-46.0147
-47.1193
-46.2156
-47.2664
-46.368
-47.404
-46.5023
-47.544
-46.6351
-47.6897
-46.7737
-47.8349
-46.9169
-47.9623
-47.0545
-48.0373
-47.163
-47.998
-47.199
-47.7336
-47.0858
-47.043
-46.6857
-45.5929
-45.7493
-43.072
-43.8903
-39.8816
-40.9041
-35.9862
-37.7225
-31.0675
-33.3321
-24.8574
-28.1239
-17.4251
-21.1638
-10.1466
-13.5096
-5.07578
-6.79212
-2.77539
-3.44579
-1.80121
-2.17622
-1.22859
-1.47463
-0.849287
-1.01935
-0.589684
-0.709527
-0.408812
-0.495861
-0.276069
-0.344507
-0.169792
-0.227836
-0.078372
-0.130097
0.00389669
-0.0435874
0.0797867
0.0355379
0.152309
0.108792
0.224005
0.180699
0.295345
0.252162
0.366438
0.323368
0.437355
0.394351
0.508289
0.465216
0.536254
-22.1815
-20.971
-24.8656
-23.0526
-28.3676
-26.1757
-32.2142
-29.8627
-35.9321
-33.6683
-39.0811
-37.1135
-41.4339
-39.8208
-43.0312
-41.7215
-44.0489
-42.9563
-44.6755
-43.7224
-45.0603
-44.1897
-45.3063
-44.48
-45.4791
-44.6732
-45.6187
-44.8187
-45.7483
-44.9459
-45.8797
-45.071
-46.0159
-45.201
-46.1516
-45.3352
-46.2704
-45.464
-46.34
-45.5653
-46.3021
-45.5983
-46.053
-45.4908
-45.4068
-45.1139
-44.0605
-44.2374
-41.7344
-42.5122
-38.7551
-39.7546
-35.0765
-36.7395
-30.3946
-32.591
-24.4341
-27.5883
-17.2499
-20.8967
-10.1551
-13.448
-5.16136
-6.87795
-2.84599
-3.53122
-1.84922
-2.23182
-1.26506
-1.51507
-0.879322
-1.05178
-0.615472
-0.737022
-0.431353
-0.519757
-0.296093
-0.36551
-0.187977
-0.246714
-0.0951617
-0.147439
-0.0118049
-0.0597073
0.0646793
0.0203915
0.137317
0.093955
0.208991
0.165835
0.28032
0.237278
0.351416
0.308482
0.422347
0.379472
0.493316
0.450358
0.52144
-21.8451
-20.7171
-24.3672
-22.6665
-27.677
-25.6157
-31.3248
-29.1136
-34.8593
-32.7329
-37.8642
-36.019
-40.1202
-38.6138
-41.6589
-40.4446
-42.6425
-41.6388
-43.2494
-42.3817
-43.6222
-42.8352
-43.8599
-43.1166
-44.0259
-43.3032
-44.1591
-43.4427
-44.2818
-43.5637
-44.4056
-43.682
-44.5337
-43.8046
-44.661
-43.9309
-44.7723
-44.0519
-44.8371
-44.147
-44.8005
-44.1774
-44.565
-44.0749
-43.9576
-43.7185
-42.7014
-42.8946
-40.5431
-41.2856
-37.748
-38.7248
-34.2612
-35.8589
-29.7901
-31.9234
-24.0543
-27.1071
-17.0961
-20.6569
-10.1707
-13.3992
-5.24704
-6.96426
-2.91642
-3.61625
-1.89724
-2.28744
-1.30146
-1.55548
-0.909209
-1.08407
-0.641076
-0.764331
-0.453712
-0.543456
-0.315952
-0.386336
-0.206013
-0.265429
-0.111834
-0.164634
-0.0273707
-0.0757362
0.0498011
0.00471074
0.122605
0.0793904
0.194255
0.151247
0.265574
0.222671
0.336671
0.293872
0.407616
0.364868
0.478615
0.435773
0.506893
-21.5413
-20.4867
-23.919
-22.3181
-27.0578
-25.1119
-30.5288
-28.4411
-33.9011
-31.8949
-36.7784
-35.0399
-38.9488
-37.5349
-40.4355
-39.3037
-41.3892
-40.4619
-41.9788
-41.1842
-42.3411
-41.6256
-42.5715
-41.8993
-42.7316
-42.08
-42.859
-42.2143
-42.9757
-42.3299
-43.0929
-42.4422
-43.2138
-42.5583
-43.3338
-42.6776
-43.4386
-42.7919
-43.4993
-42.8814
-43.4638
-42.9096
-43.2403
-42.8116
-42.6671
-42.4733
-41.4897
-41.6958
-39.4769
-40.1885
-36.8438
-37.7985
-33.5277
-35.0669
-29.2453
-31.3201
-23.7128
-26.6736
-16.9612
-20.4415
-10.1925
-13.3615
-5.3327
-7.05087
-2.98664
-3.70082
-1.94524
-2.34304
-1.33776
-1.59581
-0.938929
-1.11622
-0.666483
-0.791443
-0.47588
-0.566949
-0.335636
-0.406976
-0.223889
-0.283974
-0.128387
-0.181673
-0.0435094
-0.091653
0.0344383
-0.0110132
0.108162
0.0650653
0.179793
0.13693
0.2511
0.208335
0.322199
0.279532
0.393155
0.350533
0.464181
0.421454
0.492609
-21.2661
-20.2771
-23.5147
-22.003
-26.5003
-24.6572
-29.8136
-27.8351
-33.0414
-31.1411
-35.8051
-34.1602
-37.8992
-36.5661
-39.3399
-38.2796
-40.267
-39.4058
-40.8413
-40.1099
-41.1942
-40.5407
-41.4182
-40.8075
-41.5731
-40.983
-41.6956
-41.1126
-41.8069
-41.2234
-41.9182
-41.3306
-42.0328
-41.4408
-42.1464
-41.5541
-42.2454
-41.6623
-42.3025
-41.747
-42.2682
-41.7732
-42.0553
-41.6793
-41.5125
-41.3572
-40.4044
-40.6209
-38.5188
-39.2031
-36.0289
-36.9623
-32.8653
-34.3519
-28.7528
-30.7733
-23.4051
-26.2819
-16.8429
-20.2479
-10.2196
-13.3337
-5.41823
-7.13762
-3.0566
-3.78489
-1.99318
-2.39857
-1.37394
-1.63604
-0.968466
-1.14819
-0.691682
-0.818343
-0.497847
-0.590225
-0.355138
-0.427422
-0.241598
-0.30234
-0.144792
-0.198548
-0.0590171
-0.107428
0.0197461
-0.0259446
0.0939612
0.0509445
0.1656
0.12288
0.236895
0.194263
0.307994
0.265457
0.37896
0.336463
0.450009
0.407397
0.478582
-21.0163
-20.0861
-23.1488
-21.7171
-25.9966
-24.2456
-29.1684
-27.2873
-32.2669
-30.4604
-34.9291
-33.3668
-36.9549
-35.6928
-38.3544
-37.3567
-39.2578
-38.4543
-39.8185
-39.1422
-40.1633
-39.5635
-40.3816
-39.8243
-40.5319
-39.9953
-40.6499
-40.1207
-40.7565
-40.2273
-40.8627
-40.3297
-40.9716
-40.4348
-41.0795
-40.5426
-41.1735
-40.6455
-41.2273
-40.7259
-41.194
-40.7504
-40.9907
-40.6602
-40.4749
-40.3526
-39.4284
-39.6531
-37.6544
-38.3146
-35.2919
-36.2048
-32.2653
-33.7044
-28.3064
-30.2764
-23.1273
-25.9272
-16.7396
-20.0738
-10.2514
-13.3144
-5.50352
-7.22435
-3.12623
-3.8684
-2.041
-2.45396
-1.40996
-1.67613
-0.997803
-1.17997
-0.716662
-0.845019
-0.519604
-0.613278
-0.37445
-0.447664
-0.259132
-0.320522
-0.161038
-0.215252
-0.0742185
-0.12305
0.00538307
-0.0405672
0.0799887
0.0370125
0.151669
0.109089
0.222952
0.180452
0.294051
0.251642
0.365025
0.322651
0.436095
0.393597
0.464808
-20.789
-19.9119
-22.8168
-21.4572
-25.5403
-23.8718
-28.5845
-26.7903
-31.5667
-29.8438
-34.1376
-32.6487
-36.1022
-34.9027
-37.4646
-36.522
-38.3469
-37.594
-38.8955
-38.2674
-39.2329
-38.6803
-39.4463
-38.9357
-39.5925
-39.1026
-39.7066
-39.2244
-39.809
-39.3271
-39.9105
-39.4254
-40.0144
-39.5259
-40.1173
-39.6288
-40.2067
-39.727
-40.2577
-39.8035
-40.2253
-39.8265
-40.0307
-39.7396
-39.5392
-39.4451
-38.5473
-38.7786
-36.8721
-37.5107
-34.6234
-35.5168
-31.7204
-33.1163
-27.9008
-29.8238
-22.876
-25.6053
-16.6494
-19.9172
-10.287
-13.3026
-5.58847
-7.31092
-3.1955
-3.95129
-2.08866
-2.50919
-1.44581
-1.71605
-1.02692
-1.21154
-0.741412
-0.871458
-0.541144
-0.636096
-0.393564
-0.467696
-0.276485
-0.338511
-0.177119
-0.231779
-0.0892631
-0.138511
-0.00881002
-0.055052
0.0662365
0.0232595
0.137995
0.095553
0.209266
0.166896
0.280365
0.238082
0.351346
0.309094
0.422433
0.38005
0.451282
-20.5819
-19.7526
-22.5149
-21.2204
-25.1256
-23.5316
-28.0544
-26.3384
-30.9316
-29.2835
-33.4202
-31.9967
-35.3295
-34.1856
-36.6586
-35.7647
-37.5219
-36.8135
-38.0597
-37.474
-38.3906
-37.8794
-38.5995
-38.13
-38.7421
-38.2933
-38.8526
-38.4118
-38.9513
-38.5111
-39.0486
-38.6057
-39.1481
-38.7021
-39.2464
-38.8006
-39.3317
-38.8945
-39.3802
-38.9676
-39.3487
-38.9892
-39.1619
-38.9054
-38.6922
-38.6228
-37.7493
-37.986
-36.1618
-36.7811
-34.0153
-34.8902
-31.2243
-32.5809
-27.5316
-29.4109
-22.6485
-25.3126
-16.571
-19.7763
-10.3261
-13.2974
-5.67298
-7.39718
-3.26435
-4.03351
-2.13614
-2.56418
-1.48145
-1.75577
-1.05581
-1.24287
-0.765921
-0.897648
-0.562456
-0.658671
-0.412473
-0.48751
-0.29365
-0.356302
-0.193027
-0.248122
-0.104166
-0.153804
-0.022856
-0.0694247
0.0526978
0.00967763
0.124575
0.082267
0.195833
0.15359
0.266932
0.224772
0.337918
0.295786
0.40902
0.36675
0.438001
-20.3928
-19.607
-22.2396
-21.0042
-24.7478
-23.2213
-27.5718
-25.9263
-30.3539
-28.773
-32.768
-31.403
-34.6272
-33.533
-35.9262
-35.0756
-36.7724
-36.1036
-37.3005
-36.7524
-37.6256
-37.151
-37.8306
-37.3973
-37.9699
-37.5574
-38.0773
-37.673
-38.1725
-37.7692
-38.2661
-37.8604
-38.3616
-37.9531
-38.4558
-38.0477
-38.5375
-38.1377
-38.5837
-38.2078
-38.5531
-38.2282
-38.3733
-38.1472
-37.9235
-37.8753
-37.0244
-37.2655
-35.5153
-36.1172
-33.4608
-34.3182
-30.7716
-32.0922
-27.1949
-29.0333
-22.4423
-25.0462
-16.5033
-19.6497
-10.3681
-13.298
-5.75696
-7.48301
-3.33273
-4.11501
-2.18338
-2.6189
-1.51687
-1.79526
-1.08445
-1.27396
-0.790179
-0.923575
-0.583535
-0.680995
-0.431171
-0.507099
-0.310622
-0.373889
-0.208757
-0.264277
-0.11893
-0.168922
-0.0367658
-0.0836848
0.0393668
-0.00512015
0.111401
0.0692178
0.182648
0.14053
0.253745
0.211708
0.324736
0.282723
0.39585
0.353693
0.424959
-20.22
-19.4737
-21.9882
-20.8066
-24.4029
-22.9377
-27.1315
-25.5497
-29.827
-28.3068
-32.1734
-30.8612
-33.9872
-32.9375
-35.2589
-34.4469
-36.0897
-35.456
-36.6091
-36.0943
-36.929
-36.4869
-37.1304
-36.7294
-37.2668
-36.8865
-37.3713
-36.9995
-37.4635
-37.093
-37.5538
-37.1811
-37.6456
-37.2705
-37.7361
-37.3615
-37.8145
-37.4481
-37.8588
-37.5153
-37.8289
-37.5347
-37.6556
-37.4563
-37.2237
-37.1943
-36.3642
-36.6088
-34.9254
-35.5116
-32.9542
-33.795
-30.3577
-31.6454
-26.8873
-28.6876
-22.2553
-24.8033
-16.445
-19.5361
-10.4125
-13.3037
-5.84031
-7.5683
-3.40057
-4.19572
-2.23036
-2.67331
-1.55203
-1.83449
-1.11283
-1.30477
-0.814175
-0.949229
-0.604371
-0.703059
-0.449651
-0.526455
-0.327394
-0.391266
-0.224303
-0.280239
-0.133546
-0.183861
-0.0519029
-0.0977963
0.0248614
-0.0197609
0.0984629
0.0563701
0.169706
0.12771
0.240802
0.198884
0.311796
0.2699
0.382919
0.340874
0.412152
-20.0617
-19.3515
-21.7582
-20.6257
-24.0873
-22.678
-26.7287
-25.2048
-29.3453
-27.88
-31.6301
-30.3654
-33.4025
-32.3928
-34.6494
-33.872
-35.4662
-34.8639
-35.9778
-35.4928
-36.293
-35.88
-36.4912
-36.119
-36.625
-36.2736
-36.727
-36.3841
-36.8165
-36.4752
-36.9037
-36.5605
-36.9922
-36.6468
-37.0794
-36.7346
-37.1548
-36.8181
-37.1972
-36.8828
-37.1681
-36.9013
-37.0008
-36.8252
-36.5852
-36.5722
-35.7616
-36.009
-34.386
-34.9579
-32.4904
-33.3155
-29.9787
-31.236
-26.606
-28.3706
-22.0856
-24.5816
-16.3952
-19.4341
-10.4591
-13.3139
-5.92296
-7.65294
-3.46784
-4.27559
-2.27702
-2.72734
-1.58691
-1.87342
-1.14092
-1.33529
-0.8379
-0.974597
-0.624958
-0.724856
-0.467906
-0.545573
-0.343962
-0.408428
-0.239659
-0.296002
-0.147982
-0.198616
-0.0655316
-0.111736
0.0118648
-0.0328971
0.085732
0.0437002
0.157002
0.115126
0.228096
0.186296
0.299093