/*--------------------------------*- C++ -*----------------------------------*\
| =========                 |                                                 |
| \\      /  F ield         | OpenFOAM: The Open Source CFD Toolbox           |
|  \\    /   O peration     | Version:  v1912                                 |
|   \\  /    A nd           | Website:  www.openfoam.com                      |
|    \\/     M anipulation  |                                                 |
\*---------------------------------------------------------------------------*/
FoamFile
{
    version     2.0;
    format      ascii;
    class       volScalarField;
    location    "31536000";
    object      theta;
}
// * * * * * * * * * * * * * * * * * * * * * * * * * * * * * * * * * * * * * //

dimensions      [0 0 0 0 0 0 0];


internalField   nonuniform List<scalar> 
4250
(
0.149223
0.149173
0.149219
0.149223
0.149223
0.149223
0.149223
0.149223
0.149223
0.149223
0.149223
0.149223
0.149223
0.149223
0.149223
0.149223
0.149223
0.149223
0.149223
0.149223
0.149223
0.149223
0.149223
0.149223
0.149223
0.149223
0.149223
0.149223
0.149223
0.149223
0.149223
0.149223
0.149223
0.149223
0.149223
0.149223
0.149223
0.149223
0.149223
0.149223
0.149223
0.149223
0.149223
0.149223
0.149223
0.149223
0.149223
0.149223
0.149223
0.149223
0.149246
0.149125
0.149213
0.149221
0.149222
0.149223
0.149223
0.149223
0.149223
0.149223
0.149223
0.149223
0.149223
0.149223
0.149223
0.149223
0.149223
0.149223
0.149223
0.149223
0.149223
0.149223
0.149223
0.149223
0.149223
0.149223
0.149223
0.149223
0.149223
0.149223
0.149223
0.149223
0.149223
0.149223
0.149223
0.149223
0.149223
0.149223
0.149223
0.149223
0.149223
0.149223
0.149223
0.149223
0.149223
0.149223
0.149223
0.149223
0.149222
0.149222
0.157481
0.149122
0.149201
0.149219
0.149222
0.149223
0.149223
0.149223
0.149223
0.149223
0.149223
0.149223
0.149223
0.149223
0.149223
0.149223
0.149223
0.149223
0.149223
0.149223
0.149223
0.149223
0.149223
0.149223
0.149223
0.149223
0.149223
0.149223
0.149223
0.149223
0.149223
0.149223
0.149223
0.149223
0.149223
0.149223
0.149223
0.149223
0.149223
0.149223
0.149223
0.149223
0.149223
0.149223
0.149223
0.149223
0.149223
0.149223
0.149222
0.149221
0.174359
0.149227
0.149178
0.149216
0.149222
0.149222
0.149223
0.149223
0.149223
0.149223
0.149223
0.149223
0.149223
0.149223
0.149223
0.149223
0.149223
0.149223
0.149223
0.149223
0.149223
0.149223
0.149223
0.149223
0.149223
0.149223
0.149223
0.149223
0.149223
0.149223
0.149223
0.149223
0.149223
0.149223
0.149223
0.149223
0.149223
0.149223
0.149223
0.149223
0.149223
0.149223
0.149223
0.149223
0.149223
0.149223
0.149223
0.149223
0.149222
0.149221
0.183973
0.150732
0.149162
0.149207
0.149222
0.149222
0.149223
0.149223
0.149223
0.149223
0.149223
0.149223
0.149223
0.149223
0.149223
0.149223
0.149223
0.149223
0.149223
0.149223
0.149223
0.149223
0.149223
0.149223
0.149223
0.149223
0.149223
0.149223
0.149223
0.149223
0.149223
0.149223
0.149223
0.149223
0.149223
0.149223
0.149223
0.149223
0.149223
0.149223
0.149223
0.149223
0.149223
0.149223
0.149223
0.149223
0.149223
0.149222
0.149221
0.14922
0.19093
0.165685
0.149247
0.149188
0.149221
0.149223
0.149223
0.149223
0.149223
0.149223
0.149223
0.149223
0.149223
0.149223
0.149223
0.149223
0.149223
0.149223
0.149223
0.149223
0.149223
0.149223
0.149223
0.149223
0.149223
0.149223
0.149223
0.149223
0.149223
0.149223
0.149223
0.149223
0.149223
0.149223
0.149223
0.149223
0.149223
0.149223
0.149223
0.149223
0.149223
0.149223
0.149223
0.149223
0.149223
0.149223
0.149223
0.149222
0.149221
0.149219
0.19617
0.175662
0.156926
0.149237
0.149213
0.149223
0.149223
0.149223
0.149223
0.149223
0.149223
0.149223
0.149223
0.149223
0.149223
0.149223
0.149223
0.149223
0.149223
0.149223
0.149223
0.149223
0.149223
0.149223
0.149223
0.149223
0.149223
0.149223
0.149223
0.149223
0.149223
0.149223
0.149223
0.149223
0.149223
0.149223
0.149223
0.149223
0.149223
0.149223
0.149223
0.149223
0.149223
0.149223
0.149223
0.149223
0.149223
0.149222
0.14922
0.149218
0.200375
0.183082
0.166732
0.153644
0.149235
0.149221
0.149223
0.149223
0.149223
0.149223
0.149223
0.149223
0.149223
0.149223
0.149223
0.149223
0.149223
0.149223
0.149223
0.149223
0.149223
0.149223
0.149223
0.149223
0.149223
0.149223
0.149223
0.149223
0.149223
0.149223
0.149223
0.149223
0.149223
0.149223
0.149223
0.149223
0.149223
0.149223
0.149223
0.149223
0.149223
0.149223
0.149223
0.149223
0.149223
0.149223
0.149223
0.149222
0.149219
0.149216
0.20387
0.188911
0.174524
0.162211
0.153006
0.149241
0.149229
0.149224
0.149223
0.149223
0.149223
0.149223
0.149223
0.149223
0.149223
0.149223
0.149223
0.149223
0.149223
0.149223
0.149223
0.149223
0.149223
0.149223
0.149223
0.149223
0.149223
0.149223
0.149223
0.149223
0.149223
0.149223
0.149223
0.149223
0.149223
0.149223
0.149223
0.149223
0.149223
0.149223
0.149223
0.149223
0.149223
0.149223
0.149223
0.149223
0.149223
0.149222
0.149217
0.149214
0.206838
0.193669
0.180732
0.169509
0.160525
0.154398
0.151196
0.149492
0.149241
0.149238
0.149237
0.149236
0.149236
0.149235
0.149235
0.149235
0.149235
0.149235
0.149235
0.149234
0.149234
0.149234
0.149234
0.149233
0.149233
0.149232
0.149232
0.149231
0.149231
0.14923
0.149229
0.149228
0.149227
0.149226
0.149224
0.149223
0.149223
0.149223
0.149223
0.149223
0.149223
0.149223
0.149223
0.149223
0.149223
0.149223
0.149223
0.149222
0.149216
0.14921
0.209398
0.197652
0.18583
0.175478
0.16708
0.161045
0.157437
0.155359
0.154189
0.153547
0.15319
0.15299
0.152873
0.1528
0.152749
0.152707
0.152667
0.152625
0.152578
0.152524
0.152461
0.152389
0.152304
0.152207
0.152095
0.151966
0.151818
0.151649
0.151456
0.151237
0.150989
0.150708
0.150391
0.150035
0.149635
0.149231
0.14924
0.149237
0.149234
0.149231
0.149228
0.149225
0.149223
0.149223
0.149223
0.149223
0.149223
0.149222
0.149215
0.149206
0.21163
0.201046
0.190119
0.180458
0.172554
0.166782
0.16321
0.1611
0.159882
0.159187
0.158793
0.158569
0.158439
0.158358
0.158302
0.158256
0.158214
0.158169
0.158119
0.158062
0.157996
0.15792
0.15783
0.157727
0.157607
0.157468
0.157309
0.157126
0.156916
0.156676
0.156402
0.156089
0.155734
0.15533
0.154871
0.15435
0.153769
0.153127
0.152416
0.151624
0.150733
0.149723
0.149238
0.149232
0.149226
0.149223
0.149223
0.149222
0.149216
0.149205
0.213594
0.203978
0.193794
0.184696
0.177194
0.171661
0.16816
0.166064
0.164843
0.164143
0.163745
0.163518
0.163386
0.163305
0.163249
0.163205
0.163164
0.163122
0.163075
0.163021
0.162959
0.162887
0.162803
0.162705
0.162592
0.162462
0.162312
0.162139
0.161941
0.161715
0.161456
0.161161
0.160824
0.16044
0.160004
0.159508
0.158943
0.158302
0.157569
0.156728
0.155754
0.154612
0.15327
0.151746
0.150018
0.149235
0.149224
0.149222
0.149218
0.149207
0.215335
0.206536
0.196985
0.188359
0.181191
0.175858
0.172423
0.170342
0.169124
0.168421
0.168021
0.167793
0.167661
0.16758
0.167525
0.167482
0.167443
0.167403
0.167359
0.167309
0.16725
0.167183
0.167104
0.167013
0.166908
0.166786
0.166646
0.166485
0.1663
0.166089
0.165848
0.165572
0.165258
0.164901
0.164494
0.164031
0.163504
0.162903
0.162215
0.161422
0.160498
0.159411
0.158114
0.15655
0.154652
0.152346
0.149628
0.149227
0.149219
0.149211
0.216886
0.208789
0.199788
0.191566
0.184682
0.179517
0.176137
0.17407
0.172852
0.172147
0.171745
0.171515
0.171382
0.171302
0.171247
0.171206
0.171168
0.17113
0.171089
0.171041
0.170987
0.170923
0.170849
0.170764
0.170665
0.170551
0.170419
0.170268
0.170095
0.169897
0.169671
0.169413
0.16912
0.168785
0.168405
0.167972
0.167478
0.166915
0.166271
0.165527
0.164661
0.163643
0.16243
0.160963
0.159166
0.15691
0.153958
0.15031
0.149225
0.149214
0.218277
0.210788
0.202271
0.194401
0.187763
0.182741
0.17941
0.177353
0.176134
0.175426
0.175021
0.17479
0.174656
0.174575
0.174522
0.174481
0.174445
0.174409
0.174369
0.174324
0.174272
0.174212
0.174143
0.174062
0.173969
0.173861
0.173737
0.173594
0.173431
0.173245
0.173032
0.172789
0.172512
0.172198
0.171839
0.171432
0.170967
0.170437
0.169829
0.169129
0.168315
0.167358
0.166221
0.164849
0.163166
0.161049
0.158262
0.154519
0.14967
0.14922
0.219529
0.212571
0.204486
0.196927
0.190505
0.185608
0.182319
0.180271
0.17905
0.178338
0.17793
0.177697
0.177562
0.177481
0.177428
0.177388
0.177353
0.177318
0.17728
0.177238
0.177189
0.177132
0.177065
0.176989
0.1769
0.176798
0.17668
0.176545
0.176391
0.176214
0.176012
0.175782
0.17552
0.175222
0.174883
0.174497
0.174057
0.173555
0.17298
0.172317
0.171547
0.170644
0.169573
0.168282
0.166701
0.164712
0.162105
0.158594
0.153627
0.149231
0.220659
0.21417
0.206474
0.199194
0.192965
0.188177
0.184926
0.182885
0.18166
0.180944
0.180533
0.180297
0.180161
0.18008
0.180027
0.179988
0.179954
0.17992
0.179884
0.179843
0.179797
0.179742
0.179679
0.179606
0.179522
0.179424
0.179312
0.179184
0.179036
0.178868
0.178676
0.178457
0.178208
0.177924
0.177602
0.177234
0.176816
0.176338
0.175791
0.175161
0.17443
0.173573
0.172559
0.171339
0.169845
0.167968
0.165519
0.162236
0.157587
0.151035
0.221684
0.21561
0.208267
0.201239
0.195183
0.190493
0.187276
0.185241
0.184012
0.183292
0.182876
0.182639
0.182502
0.18242
0.182367
0.182328
0.182295
0.182263
0.182228
0.182189
0.182144
0.182092
0.182032
0.181962
0.181881
0.181788
0.181681
0.181558
0.181417
0.181256
0.181073
0.180864
0.180625
0.180354
0.180046
0.179696
0.179296
0.17884
0.178317
0.177716
0.177018
0.176203
0.175238
0.174079
0.17266
0.17088
0.168569
0.165484
0.161154
0.154836
0.222616
0.216913
0.209891
0.203093
0.197193
0.192592
0.189407
0.187375
0.186143
0.185418
0.184999
0.184759
0.18462
0.184538
0.184485
0.184446
0.184414
0.184383
0.184349
0.184312
0.184269
0.184219
0.184161
0.184094
0.184016
0.183927
0.183824
0.183706
0.183571
0.183417
0.183241
0.18304
0.182812
0.182552
0.182257
0.181921
0.181538
0.181101
0.1806
0.180024
0.179357
0.178577
0.177656
0.17655
0.175198
0.173503
0.171311
0.168399
0.164345
0.158443
0.223464
0.218095
0.211367
0.20478
0.199023
0.194503
0.191347
0.189319
0.188083
0.187352
0.186929
0.186686
0.186546
0.186463
0.186411
0.186373
0.186341
0.18631
0.186278
0.186242
0.1862
0.186152
0.186097
0.186032
0.185958
0.185872
0.185773
0.18566
0.18553
0.185381
0.185212
0.185019
0.184799
0.18455
0.184266
0.183943
0.183575
0.183154
0.182674
0.182121
0.18148
0.180733
0.17985
0.178791
0.177498
0.175878
0.173791
0.171029
0.167215
0.161704
0.224239
0.21917
0.212712
0.20632
0.200695
0.196249
0.19312
0.191095
0.189855
0.189119
0.188692
0.188447
0.188305
0.188222
0.188169
0.188131
0.1881
0.18807
0.188039
0.188004
0.187964
0.187917
0.187864
0.187802
0.18773
0.187647
0.187552
0.187442
0.187317
0.187174
0.187011
0.186825
0.186613
0.186372
0.186099
0.185787
0.185432
0.185028
0.184565
0.184032
0.183416
0.182698
0.181849
0.180833
0.179591
0.178039
0.176044
0.173416
0.169812
0.164649
0.224949
0.220151
0.213942
0.20773
0.202227
0.19785
0.194746
0.192724
0.191479
0.190738
0.190307
0.190059
0.189916
0.189832
0.189779
0.189742
0.189711
0.189682
0.189651
0.189618
0.189579
0.189534
0.189482
0.189422
0.189353
0.189273
0.189181
0.189075
0.188954
0.188816
0.188658
0.188478
0.188274
0.188041
0.187777
0.187476
0.187133
0.186743
0.186296
0.185782
0.185188
0.184495
0.183678
0.182699
0.181504
0.180012
0.178101
0.17559
0.172174
0.16732
0.225598
0.221048
0.215069
0.209025
0.203635
0.199322
0.196241
0.194222
0.192972
0.192226
0.191791
0.191541
0.191397
0.191312
0.191258
0.191221
0.191191
0.191163
0.191133
0.1911
0.191063
0.191019
0.190969
0.190911
0.190844
0.190766
0.190677
0.190575
0.190458
0.190324
0.190171
0.189997
0.189799
0.189574
0.189318
0.189027
0.188696
0.188318
0.187885
0.187389
0.186815
0.186145
0.185356
0.184411
0.183259
0.181821
0.179984
0.17758
0.174329
0.169752
0.226195
0.22187
0.216105
0.210217
0.204933
0.200679
0.19762
0.195603
0.194349
0.193598
0.193159
0.192906
0.19276
0.192674
0.192621
0.192584
0.192554
0.192526
0.192497
0.192466
0.192429
0.192387
0.192338
0.192282
0.192217
0.192142
0.192055
0.191956
0.191842
0.191713
0.191564
0.191396
0.191204
0.190985
0.190737
0.190455
0.190134
0.189768
0.189349
0.188868
0.188312
0.187664
0.186901
0.185987
0.184872
0.183484
0.181714
0.179406
0.176305
0.171975
0.226743
0.222624
0.217057
0.211316
0.20613
0.201932
0.198894
0.196879
0.195621
0.194865
0.194422
0.194166
0.194019
0.193933
0.193879
0.193842
0.193812
0.193785
0.193757
0.193726
0.193691
0.19365
0.193603
0.193548
0.193484
0.193411
0.193327
0.193231
0.193121
0.192995
0.192851
0.192687
0.1925
0.192288
0.192047
0.191773
0.191462
0.191106
0.1907
0.190233
0.189694
0.189066
0.188325
0.18744
0.18636
0.185017
0.183308
0.181087
0.178121
0.174016
0.227247
0.223317
0.217934
0.212331
0.207237
0.203092
0.200074
0.198061
0.196798
0.196037
0.19559
0.195332
0.195183
0.195096
0.195042
0.195005
0.194976
0.194949
0.194922
0.194892
0.194857
0.194818
0.194772
0.194718
0.194657
0.194586
0.194504
0.19441
0.194303
0.19418
0.19404
0.193881
0.1937
0.193493
0.193259
0.192993
0.192689
0.192344
0.191949
0.191495
0.190971
0.190361
0.189643
0.188783
0.187736
0.186434
0.184781
0.182638
0.179795
0.175893
0.22771
0.223954
0.218744
0.21327
0.208263
0.204167
0.201168
0.199157
0.19789
0.197124
0.196673
0.196413
0.196262
0.196174
0.19612
0.196083
0.196054
0.196028
0.196001
0.195972
0.195938
0.1959
0.195855
0.195803
0.195743
0.195674
0.195594
0.195503
0.195398
0.195279
0.195143
0.194987
0.194811
0.19461
0.194382
0.194122
0.193827
0.19349
0.193106
0.192665
0.192155
0.191562
0.190863
0.190027
0.189009
0.187745
0.186143
0.184073
0.181342
0.177625
0.228138
0.224542
0.219492
0.214139
0.209215
0.205165
0.202184
0.200174
0.198903
0.198132
0.197678
0.197415
0.197264
0.197175
0.19712
0.197084
0.197055
0.197029
0.197003
0.196974
0.196941
0.196903
0.19686
0.196809
0.196751
0.196683
0.196606
0.196517
0.196415
0.196298
0.196165
0.196014
0.195842
0.195646
0.195423
0.19517
0.194883
0.194555
0.19418
0.19375
0.193253
0.192675
0.191995
0.191181
0.19019
0.188961
0.187406
0.185403
0.182774
0.179228
0.228531
0.225084
0.220185
0.214946
0.210099
0.206093
0.203128
0.201121
0.199846
0.19907
0.198613
0.198347
0.198194
0.198105
0.19805
0.198013
0.197985
0.197959
0.197933
0.197905
0.197873
0.197836
0.197794
0.197744
0.197687
0.197621
0.197546
0.197459
0.197359
0.197245
0.197116
0.196968
0.1968
0.196608
0.196391
0.196144
0.195863
0.195543
0.195178
0.194758
0.194274
0.19371
0.193046
0.192253
0.191288
0.190091
0.188579
0.186637
0.184103
0.180712
0.228895
0.225584
0.220826
0.215695
0.210921
0.206957
0.204008
0.202002
0.200723
0.199943
0.199482
0.199214
0.19906
0.198969
0.198914
0.198877
0.198849
0.198824
0.198799
0.198771
0.19874
0.198704
0.198662
0.198614
0.198558
0.198494
0.19842
0.198335
0.198238
0.198127
0.198
0.197855
0.197691
0.197504
0.197292
0.19705
0.196776
0.196463
0.196106
0.195696
0.195223
0.194673
0.194025
0.19325
0.192308
0.191141
0.189669
0.187784
0.185337
0.182091
0.22923
0.226046
0.22142
0.216391
0.211686
0.207762
0.204828
0.202823
0.201541
0.200756
0.200292
0.200022
0.199866
0.199775
0.199719
0.199682
0.199654
0.19963
0.199605
0.199578
0.199547
0.199512
0.199471
0.199424
0.199369
0.199307
0.199234
0.199151
0.199056
0.198947
0.198823
0.198682
0.198521
0.198338
0.19813
0.197894
0.197626
0.19732
0.196971
0.19657
0.196108
0.195569
0.194936
0.194179
0.193259
0.192119
0.190684
0.188852
0.186486
0.183373
0.229539
0.226473
0.221971
0.217039
0.212399
0.208512
0.205593
0.203589
0.202303
0.201515
0.201047
0.200774
0.200617
0.200525
0.20047
0.200433
0.200405
0.20038
0.200356
0.200329
0.200299
0.200265
0.200225
0.200179
0.200125
0.200064
0.199993
0.199912
0.199818
0.199712
0.19959
0.199452
0.199295
0.199116
0.198912
0.198681
0.198418
0.198119
0.197777
0.197385
0.196932
0.196405
0.195785
0.195045
0.194145
0.193031
0.191631
0.189847
0.187556
0.184567
0.229824
0.226868
0.222482
0.217642
0.213063
0.209212
0.206307
0.204305
0.203015
0.202222
0.201751
0.201476
0.201318
0.201225
0.201169
0.201132
0.201105
0.201081
0.201056
0.20103
0.201001
0.200967
0.200928
0.200883
0.200831
0.20077
0.200701
0.200621
0.20053
0.200425
0.200306
0.200171
0.200016
0.199841
0.199641
0.199415
0.199157
0.198864
0.198529
0.198145
0.197701
0.197185
0.196578
0.195853
0.194972
0.193882
0.192514
0.190775
0.188554
0.18568
0.230087
0.227234
0.222957
0.218203
0.213684
0.209866
0.206974
0.204973
0.20368
0.202883
0.202409
0.202132
0.201972
0.201879
0.201822
0.201786
0.201758
0.201734
0.20171
0.201685
0.201656
0.201623
0.201584
0.20154
0.201489
0.20143
0.201361
0.201283
0.201194
0.201091
0.200974
0.200841
0.20069
0.200518
0.200322
0.2001
0.199847
0.19956
0.199231
0.198854
0.198419
0.197913
0.197318
0.196607
0.195744
0.194677
0.193338
0.191642
0.189486
0.186718
0.23033
0.227572
0.223399
0.218726
0.214263
0.210477
0.207598
0.205598
0.204301
0.203501
0.203023
0.202744
0.202583
0.202489
0.202432
0.202395
0.202368
0.202344
0.202321
0.202296
0.202267
0.202235
0.202197
0.202154
0.202103
0.202045
0.201978
0.201901
0.201814
0.201713
0.201598
0.201468
0.201319
0.20115
0.200958
0.20074
0.200492
0.200209
0.199887
0.199517
0.19909
0.198594
0.198009
0.197312
0.196465
0.195419
0.194108
0.192452
0.190356
0.187689
0.230554
0.227886
0.223809
0.219214
0.214804
0.211048
0.208181
0.206182
0.204882
0.204078
0.203597
0.203316
0.203154
0.203059
0.203002
0.202965
0.202938
0.202914
0.202891
0.202866
0.202839
0.202807
0.20277
0.202727
0.202677
0.20262
0.202555
0.202479
0.202393
0.202294
0.202181
0.202053
0.201907
0.201741
0.201552
0.201338
0.201094
0.200817
0.2005
0.200136
0.199717
0.19923
0.198656
0.197971
0.197139
0.196113
0.194828
0.193209
0.191169
0.188596
0.23076
0.228176
0.224191
0.21967
0.21531
0.211583
0.208727
0.206729
0.205426
0.204618
0.204134
0.203851
0.203687
0.203592
0.203535
0.203498
0.20347
0.203447
0.203424
0.2034
0.203372
0.203341
0.203305
0.203263
0.203214
0.203158
0.203093
0.203019
0.202934
0.202837
0.202726
0.2026
0.202456
0.202293
0.202108
0.201897
0.201657
0.201384
0.201073
0.200716
0.200304
0.199824
0.19926
0.198587
0.19777
0.196762
0.195502
0.193917
0.191931
0.189446
0.230951
0.228445
0.224546
0.220095
0.215782
0.212083
0.209238
0.207241
0.205934
0.205123
0.204636
0.204351
0.204186
0.20409
0.204032
0.203995
0.203968
0.203945
0.203922
0.203898
0.203871
0.203841
0.203805
0.203764
0.203716
0.203661
0.203597
0.203524
0.20344
0.203345
0.203236
0.203112
0.20297
0.20281
0.202627
0.20242
0.202184
0.201915
0.201609
0.201257
0.200852
0.20038
0.199826
0.199164
0.19836
0.19737
0.196132
0.194579
0.192643
0.190241
0.231126
0.228694
0.224876
0.220491
0.216224
0.212551
0.209716
0.20772
0.20641
0.205595
0.205105
0.204819
0.204652
0.204556
0.204498
0.204461
0.204434
0.204411
0.204388
0.204365
0.204338
0.204308
0.204273
0.204232
0.204185
0.20413
0.204068
0.203996
0.203914
0.20382
0.203712
0.20359
0.203451
0.203293
0.203113
0.202909
0.202676
0.202412
0.20211
0.201764
0.201365
0.200901
0.200355
0.199703
0.198913
0.197938
0.196722
0.1952
0.19331
0.190985
0.231288
0.228925
0.225184
0.220862
0.216638
0.212989
0.210164
0.208168
0.206856
0.206037
0.205545
0.205256
0.205089
0.204991
0.204933
0.204896
0.204869
0.204846
0.204824
0.204801
0.204775
0.204745
0.20471
0.20467
0.204623
0.20457
0.204508
0.204438
0.204356
0.204264
0.204158
0.204037
0.2039
0.203744
0.203567
0.203366
0.203137
0.202877
0.202579
0.202238
0.201845
0.201388
0.20085
0.200208
0.19943
0.19847
0.197275
0.195781
0.193934
0.191683
0.231436
0.229139
0.22547
0.221208
0.217025
0.2134
0.210583
0.208588
0.207273
0.206451
0.205956
0.205665
0.205497
0.205399
0.20534
0.205303
0.205276
0.205253
0.205231
0.205208
0.205183
0.205153
0.205119
0.205079
0.205034
0.204981
0.20492
0.204851
0.204771
0.204679
0.204575
0.204456
0.204321
0.204167
0.203992
0.203794
0.203568
0.203312
0.203018
0.202682
0.202295
0.201844
0.201314
0.200681
0.199914
0.198969
0.197792
0.196325
0.194519
0.192337
0.231573
0.229337
0.225737
0.221531
0.217387
0.213784
0.210976
0.208982
0.207664
0.206838
0.206341
0.206048
0.205878
0.20578
0.205721
0.205683
0.205657
0.205634
0.205613
0.20559
0.205564
0.205535
0.205501
0.205463
0.205417
0.205365
0.205306
0.205237
0.205158
0.205068
0.204965
0.204848
0.204714
0.204562
0.20439
0.204194
0.203972
0.203718
0.203429
0.203098
0.202715
0.202271
0.201748
0.201124
0.200367
0.199436
0.198277
0.196835
0.195068
0.192951
0.231699
0.22952
0.225985
0.221833
0.217726
0.214144
0.211344
0.20935
0.208029
0.207201
0.2067
0.206406
0.206235
0.206136
0.206077
0.206039
0.206013
0.20599
0.205969
0.205946
0.205921
0.205892
0.205859
0.205821
0.205776
0.205725
0.205666
0.205598
0.20552
0.205431
0.205329
0.205214
0.205082
0.204932
0.204762
0.204569
0.204349
0.204099
0.203814
0.203486
0.203109
0.20267
0.202154
0.201538
0.200792
0.199873
0.198731
0.197312
0.195581
0.193526
0.231814
0.229689
0.226216
0.222115
0.218043
0.214481
0.211689
0.209695
0.208372
0.20754
0.207037
0.206741
0.206569
0.206469
0.20641
0.206372
0.206345
0.206323
0.206302
0.20628
0.206255
0.206226
0.206194
0.206156
0.206112
0.206061
0.206003
0.205936
0.205859
0.205771
0.20567
0.205556
0.205426
0.205278
0.20511
0.204919
0.204702
0.204455
0.204173
0.20385
0.203477
0.203044
0.202534
0.201926
0.201189
0.200282
0.199156
0.197759
0.196063
0.194065
0.23192
0.229846
0.226431
0.222378
0.21834
0.214797
0.212012
0.210018
0.208692
0.207857
0.207352
0.207054
0.206881
0.206781
0.206721
0.206683
0.206656
0.206634
0.206613
0.206591
0.206567
0.206539
0.206506
0.206469
0.206425
0.206375
0.206318
0.206251
0.206175
0.206088
0.205989
0.205876
0.205748
0.205602
0.205436
0.205247
0.205032
0.204788
0.20451
0.20419
0.203822
0.203393
0.20289
0.202289
0.201561
0.200666
0.199554
0.198178
0.196514
0.194571
0.232017
0.229992
0.226631
0.222624
0.218618
0.215092
0.212315
0.210321
0.208992
0.208154
0.207646
0.207347
0.207173
0.207072
0.207012
0.206974
0.206947
0.206925
0.206904
0.206882
0.206858
0.20683
0.206798
0.206761
0.206718
0.206669
0.206612
0.206546
0.206471
0.206385
0.206287
0.206176
0.206049
0.205904
0.20574
0.205553
0.205341
0.2051
0.204824
0.204508
0.204144
0.203721
0.203223
0.202629
0.201909
0.201025
0.199927
0.198571
0.196937
0.195046
0.232106
0.230126
0.226817
0.222854
0.218878
0.215369
0.212598
0.210604
0.209273
0.208432
0.207921
0.20762
0.207445
0.207344
0.207283
0.207245
0.207218
0.207197
0.207176
0.207154
0.20713
0.207103
0.207071
0.207035
0.206992
0.206943
0.206887
0.206822
0.206748
0.206663
0.206566
0.206455
0.20633
0.206187
0.206024
0.20584
0.20563
0.205391
0.205118
0.204806
0.204445
0.204027
0.203534
0.202947
0.202235
0.201361
0.200276
0.198938
0.197333
0.195491
0.232186
0.23025
0.22699
0.223069
0.219121
0.215629
0.212863
0.210869
0.209535
0.208691
0.208178
0.207876
0.2077
0.207598
0.207537
0.207499
0.207472
0.20745
0.20743
0.207408
0.207384
0.207357
0.207326
0.20729
0.207248
0.207199
0.207144
0.207079
0.207006
0.206922
0.206826
0.206716
0.206592
0.20645
0.20629
0.206107
0.205899
0.205663
0.205393
0.205084
0.204727
0.204313
0.203825
0.203244
0.20254
0.201675
0.200603
0.199283
0.197703
0.195909
0.23226
0.230364
0.227152
0.223269
0.219348
0.215871
0.213111
0.211117
0.20978
0.208933
0.208418
0.208114
0.207937
0.207834
0.207774
0.207735
0.207709
0.207687
0.207666
0.207645
0.207622
0.207595
0.207564
0.207528
0.207486
0.207438
0.207383
0.20732
0.207247
0.207164
0.207069
0.20696
0.206837
0.206697
0.206538
0.206357
0.206151
0.205917
0.20565
0.205343
0.20499
0.20458
0.204097
0.203522
0.202825
0.201969
0.200908
0.199605
0.198051
0.1963
0.232327
0.23047
0.227301
0.223457
0.219561
0.216098
0.213343
0.211349
0.210009
0.20916
0.208642
0.208337
0.208159
0.208055
0.207994
0.207956
0.207929
0.207907
0.207887
0.207866
0.207843
0.207816
0.207786
0.20775
0.207709
0.207661
0.207607
0.207544
0.207472
0.207389
0.207295
0.207188
0.207066
0.206927
0.206769
0.20659
0.206386
0.206154
0.205889
0.205586
0.205236
0.20483
0.204352
0.203782
0.203092
0.202244
0.201194
0.199906
0.198375
0.196666
0.232388
0.230567
0.227441
0.223631
0.21976
0.21631
0.21356
0.211565
0.210223
0.209371
0.208851
0.208544
0.208365
0.208261
0.2082
0.208162
0.208135
0.208113
0.208093
0.208072
0.208049
0.208023
0.207992
0.207957
0.207916
0.207869
0.207815
0.207753
0.207681
0.207599
0.207506
0.2074
0.207279
0.207141
0.206985
0.206807
0.206605
0.206375
0.206113
0.205812
0.205466
0.205063
0.204589
0.204024
0.20334
0.202501
0.201462
0.200188
0.198679
0.19701
0.232443
0.230657
0.22757
0.223794
0.219946
0.216509
0.213763
0.211767
0.210423
0.209568
0.209046
0.208737
0.208558
0.208453
0.208392
0.208353
0.208326
0.208305
0.208285
0.208264
0.208241
0.208215
0.208185
0.20815
0.208109
0.208063
0.208009
0.207947
0.207876
0.207795
0.207703
0.207597
0.207477
0.207341
0.207186
0.20701
0.20681
0.206582
0.206321
0.206023
0.205679
0.20528
0.20481
0.204251
0.203573
0.20274
0.201711
0.200451
0.198964
0.197331
0.232493
0.230739
0.22769
0.223946
0.220119
0.216694
0.213953
0.211956
0.210609
0.209751
0.209228
0.208917
0.208737
0.208632
0.20857
0.208531
0.208504
0.208483
0.208463
0.208442
0.20842
0.208394
0.208364
0.208329
0.208289
0.208243
0.20819
0.208128
0.208058
0.207978
0.207886
0.207781
0.207662
0.207527
0.207373
0.207198
0.207
0.206774
0.206515
0.20622
0.205879
0.205483
0.205017
0.204462
0.203789
0.202964
0.201944
0.200697
0.199229
0.197632
0.232538
0.230815
0.227801
0.224087
0.220282
0.216868
0.214129
0.212132
0.210783
0.209922
0.209397
0.209085
0.208903
0.208798
0.208736
0.208697
0.20867
0.208649
0.208629
0.208608
0.208586
0.20856
0.20853
0.208496
0.208456
0.20841
0.208358
0.208297
0.208227
0.208147
0.208056
0.207952
0.207834
0.2077
0.207547
0.207374
0.207177
0.206952
0.206696
0.206403
0.206064
0.205671
0.205209
0.204658
0.203991
0.203173
0.202162
0.200927
0.199477
0.197913
0.232578
0.230885
0.227905
0.224219
0.220433
0.217029
0.214295
0.212296
0.210944
0.210081
0.209554
0.20924
0.209058
0.208952
0.20889
0.208851
0.208824
0.208802
0.208783
0.208762
0.20874
0.208714
0.208685
0.208651
0.208611
0.208566
0.208513
0.208453
0.208384
0.208305
0.208214
0.208111
0.207994
0.207861
0.207709
0.207537
0.207341
0.207119
0.206864
0.206573
0.206237
0.205847
0.205388
0.204841
0.20418
0.203368
0.202365
0.201141
0.199708
0.198176
0.232614
0.230948
0.228
0.224342
0.220574
0.21718
0.214448
0.212449
0.211095
0.210229
0.209699
0.209385
0.209201
0.209095
0.209032
0.208993
0.208966
0.208945
0.208925
0.208905
0.208883
0.208858
0.208828
0.208795
0.208755
0.20871
0.208658
0.208598
0.20853
0.208451
0.208361
0.208259
0.208142
0.20801
0.207859
0.207689
0.207494
0.207273
0.20702
0.206731
0.206398
0.20601
0.205555
0.205012
0.204355
0.203549
0.202554
0.20134
0.199924
0.198422
0.232645
0.231007
0.228089
0.224456
0.220705
0.217321
0.214592
0.212592
0.211234
0.210366
0.209834
0.209519
0.209334
0.209228
0.209165
0.209125
0.209099
0.209077
0.209058
0.209038
0.209015
0.20899
0.208961
0.208928
0.208889
0.208844
0.208792
0.208733
0.208664
0.208586
0.208497
0.208396
0.20828
0.208148
0.207999
0.207829
0.207636
0.207416
0.207165
0.206878
0.206546
0.206161
0.205709
0.20517
0.204517
0.203717
0.202729
0.201526
0.200125
0.198651
0.232674
0.23106
0.228171
0.224562
0.220828
0.217452
0.214725
0.212724
0.211364
0.210493
0.20996
0.209643
0.209458
0.20935
0.209287
0.209248
0.209221
0.2092
0.20918
0.20916
0.209138
0.209113
0.209084
0.209051
0.209012
0.208968
0.208916
0.208857
0.208789
0.208712
0.208623
0.208522
0.208407
0.208276
0.208128
0.207959
0.207767
0.207549
0.207299
0.207014
0.206684
0.206302
0.205852
0.205317
0.204669
0.203873
0.202893
0.201699
0.200312
0.198864
0.232698
0.231109
0.228247
0.224661
0.220942
0.217574
0.214849
0.212846
0.211484
0.210611
0.210076
0.209757
0.209571
0.209463
0.2094
0.209361
0.209334
0.209312
0.209293
0.209273
0.209251
0.209226
0.209198
0.209165
0.209126
0.209082
0.209031
0.208972
0.208905
0.208827
0.208739
0.208639
0.208525
0.208395
0.208247
0.208079
0.207888
0.207671
0.207423
0.207139
0.206812
0.206432
0.205985
0.205453
0.204809
0.204019
0.203044
0.201859
0.200486
0.199063
0.23272
0.231153
0.228317
0.224752
0.221048
0.217687
0.214964
0.21296
0.211595
0.21072
0.210182
0.209863
0.209676
0.209568
0.209504
0.209465
0.209438
0.209416
0.209397
0.209377
0.209356
0.209331
0.209302
0.209269
0.209231
0.209187
0.209136
0.209078
0.209011
0.208934
0.208847
0.208747
0.208633
0.208504
0.208357
0.20819
0.208
0.207784
0.207538
0.207256
0.20693
0.206552
0.206108
0.205579
0.204938
0.204153
0.203185
0.202008
0.200647
0.199247
0.232738
0.231193
0.228381
0.224837
0.221146
0.217792
0.215071
0.213066
0.211698
0.21082
0.210281
0.20996
0.209773
0.209664
0.2096
0.20956
0.209533
0.209512
0.209493
0.209473
0.209452
0.209427
0.209399
0.209366
0.209328
0.209284
0.209234
0.209175
0.209109
0.209033
0.208945
0.208846
0.208733
0.208605
0.208458
0.208292
0.208104
0.207889
0.207644
0.207363
0.207039
0.206663
0.206221
0.205695
0.205058
0.204277
0.203315
0.202146
0.200796
0.199418
0.232754
0.231229
0.22844
0.224916
0.221237
0.21789
0.21517
0.213163
0.211793
0.210913
0.210372
0.21005
0.209861
0.209752
0.209688
0.209648
0.209621
0.2096
0.209581
0.209561
0.20954
0.209515
0.209487
0.209454
0.209417
0.209373
0.209323
0.209265
0.209199
0.209123
0.209036
0.208937
0.208825
0.208697
0.208552
0.208386
0.208199
0.207985
0.207741
0.207461
0.207139
0.206765
0.206326
0.205802
0.205169
0.204392
0.203435
0.202274
0.200935
0.199577
0.232768
0.231262
0.228495
0.224988
0.221322
0.21798
0.215261
0.213253
0.211881
0.210998
0.210455
0.210132
0.209943
0.209833
0.209769
0.209729
0.209702
0.209681
0.209661
0.209642
0.20962
0.209596
0.209568
0.209536
0.209498
0.209455
0.209405
0.209347
0.209281
0.209206
0.209119
0.209021
0.208909
0.208782
0.208637
0.208473
0.208286
0.208073
0.20783
0.207552
0.207232
0.206859
0.206422
0.205901
0.205271
0.204498
0.203546
0.202391
0.201063
0.199724
0.232779
0.231291
0.228545
0.225056
0.221401
0.218064
0.215346
0.213336
0.211961
0.211076
0.210531
0.210207
0.210017
0.209907
0.209842
0.209802
0.209775
0.209754
0.209735
0.209715
0.209694
0.20967
0.209642
0.20961
0.209572
0.209529
0.209479
0.209422
0.209356
0.209281
0.209195
0.209097
0.208986
0.208859
0.208715
0.208552
0.208365
0.208154
0.207912
0.207635
0.207316
0.206945
0.20651
0.205991
0.205364
0.204595
0.203649
0.2025
0.20118
0.19986
0.232787
0.231318
0.228591
0.225118
0.221473
0.218141
0.215424
0.213412
0.212034
0.211147
0.210601
0.210275
0.210085
0.209974
0.209909
0.209869
0.209842
0.209821
0.209802
0.209782
0.209761
0.209737
0.209709
0.209677
0.20964