/*--------------------------------*- C++ -*----------------------------------*\
| =========                 |                                                 |
| \\      /  F ield         | OpenFOAM: The Open Source CFD Toolbox           |
|  \\    /   O peration     | Version:  v1912                                 |
|   \\  /    A nd           | Website:  www.openfoam.com                      |
|    \\/     M anipulation  |                                                 |
\*---------------------------------------------------------------------------*/
FoamFile
{
    version     2.0;
    format      ascii;
    class       volScalarField;
    location    "31536000";
    object      theta;
}
// * * * * * * * * * * * * * * * * * * * * * * * * * * * * * * * * * * * * * //

dimensions      [0 0 0 0 0 0 0];


internalField   nonuniform List<scalar> 
4250
(
0.149223
0.149179
0.149217
0.149223
0.149223
0.149223
0.149223
0.149223
0.149223
0.149223
0.149223
0.149223
0.149223
0.149223
0.149223
0.149223
0.149223
0.149223
0.149223
0.149223
0.149223
0.149223
0.149223
0.149223
0.149223
0.149223
0.149223
0.149223
0.149223
0.149225
0.149223
0.365305
0.358528
0.371219
0.387603
0.40138
0.41064
0.412
0.412
0.412
0.412
0.412
0.412
0.412
0.412
0.412
0.412
0.412
0.412
0.412
0.149223
0.149146
0.149212
0.149221
0.149222
0.149223
0.149223
0.149223
0.149223
0.149223
0.149223
0.149223
0.149223
0.149223
0.149223
0.149223
0.149223
0.149223
0.149223
0.149223
0.149223
0.149223
0.149223
0.149223
0.149223
0.149223
0.149223
0.149223
0.149223
0.154155
0.149224
0.32527
0.357038
0.370079
0.386333
0.400126
0.409677
0.412
0.412
0.412
0.412
0.412
0.412
0.412
0.412
0.412
0.412
0.412
0.412
0.412
0.149232
0.149085
0.149204
0.149218
0.149221
0.149222
0.149223
0.149223
0.149223
0.149223
0.149223
0.149223
0.149223
0.149223
0.149223
0.149223
0.149223
0.149223
0.149223
0.149223
0.149223
0.149223
0.149223
0.149223
0.149223
0.149223
0.149223
0.149223
0.149223
0.173638
0.151887
0.303642
0.354987
0.368879
0.385046
0.398849
0.408638
0.412
0.412
0.412
0.412
0.412
0.412
0.412
0.412
0.412
0.412
0.412
0.412
0.412
0.168131
0.149164
0.149187
0.149214
0.149221
0.149222
0.149223
0.149223
0.149223
0.149223
0.149223
0.149223
0.149223
0.149223
0.149223
0.149223
0.149223
0.149223
0.149223
0.149223
0.149223
0.149223
0.149223
0.149223
0.149223
0.149223
0.149223
0.149223
0.149223
0.182936
0.190648
0.294757
0.352667
0.367622
0.383745
0.397554
0.407536
0.412
0.412
0.412
0.412
0.412
0.412
0.412
0.412
0.412
0.412
0.412
0.412
0.412
0.178787
0.149228
0.149158
0.149203
0.149219
0.149222
0.149223
0.149223
0.149223
0.149223
0.149223
0.149223
0.149223
0.149223
0.149223
0.149223
0.149223
0.149223
0.149223
0.149223
0.149223
0.149223
0.149223
0.149223
0.149223
0.149223
0.149223
0.149223
0.149224
0.188828
0.203626
0.292789
0.35031
0.366317
0.382433
0.396247
0.406382
0.411837
0.412
0.412
0.412
0.412
0.412
0.412
0.412
0.412
0.412
0.412
0.412
0.412
0.186647
0.15963
0.149225
0.149187
0.149214
0.149222
0.149223
0.149223
0.149223
0.149223
0.149223
0.149223
0.149223
0.149223
0.149223
0.149223
0.149223
0.149223
0.149223
0.149223
0.149223
0.149223
0.149223
0.149223
0.149223
0.149223
0.149223
0.149227
0.150542
0.193177
0.212411
0.291766
0.348021
0.364973
0.381111
0.39493
0.405194
0.411115
0.412
0.412
0.412
0.412
0.412
0.412
0.412
0.412
0.412
0.412
0.412
0.412
0.192609
0.170803
0.152462
0.149224
0.149203
0.149222
0.149223
0.149223
0.149223
0.149223
0.149223
0.149223
0.149223
0.149223
0.149223
0.149223
0.149223
0.149223
0.149223
0.149223
0.149223
0.149223
0.149223
0.149223
0.149223
0.149223
0.149223
0.156147
0.162094
0.196792
0.21872
0.291105
0.345811
0.363601
0.379782
0.393609
0.403982
0.410265
0.412
0.412
0.412
0.412
0.412
0.412
0.412
0.412
0.412
0.412
0.412
0.412
0.197306
0.179158
0.162732
0.150461
0.149224
0.149218
0.149222
0.149223
0.149223
0.149223
0.149223
0.149223
0.149223
0.149223
0.149223
0.149223
0.149223
0.149223
0.149223
0.149223
0.149223
0.149223
0.149223
0.149223
0.149223
0.149225
0.149227
0.163435
0.170694
0.200084
0.223511
0.290586
0.34368
0.362208
0.37845
0.392286
0.402755
0.409336
0.412
0.412
0.412
0.412
0.412
0.412
0.412
0.412
0.412
0.412
0.412
0.412
0.201142
0.185578
0.171153
0.15898
0.150657
0.149225
0.149223
0.149223
0.149223
0.149223
0.149223
0.149223
0.149223
0.149223
0.149223
0.149223
0.149223
0.149223
0.149223
0.149223
0.149223
0.149223
0.149223
0.149223
0.149223
0.152497
0.155532
0.16934
0.177259
0.203042
0.227298
0.290114
0.341626
0.360801
0.377115
0.390963
0.401517
0.408347
0.412
0.412
0.412
0.412
0.412
0.412
0.412
0.412
0.412
0.412
0.412
0.412
0.204356
0.190728
0.17778
0.166686
0.157983
0.152539
0.149762
0.149226
0.149225
0.149225
0.149225
0.149225
0.149224
0.149224
0.149224
0.149224
0.149224
0.149224
0.149224
0.149224
0.149224
0.149224
0.149224
0.149225
0.14969
0.158488
0.162144
0.174255
0.182507
0.20569
0.23038
0.289645
0.339642
0.359385
0.37578
0.389643
0.400273
0.407313
0.411279
0.412
0.412
0.412
0.412
0.412
0.412
0.412
0.412
0.412
0.412
0.412
0.207099
0.194987
0.18317
0.17298
0.164786
0.159181
0.155877
0.154004
0.152987
0.152418
0.152086
0.151876
0.151722
0.151589
0.151454
0.151309
0.151151
0.150985
0.150823
0.150692
0.150635
0.150728
0.151127
0.152249
0.155459
0.16382
0.167714
0.178432
0.186839
0.208064
0.232936
0.289159
0.337724
0.357966
0.374448
0.388327
0.399028
0.406255
0.410555
0.412
0.412
0.412
0.412
0.412
0.412
0.412
0.412
0.412
0.412
0.412
0.209473
0.198589
0.187678
0.178198
0.170501
0.165102
0.161793
0.159849
0.158729
0.158084
0.157702
0.157459
0.157282
0.157129
0.156977
0.156814
0.156636
0.156447
0.156264
0.156115
0.15605
0.156159
0.156615
0.157858
0.16106
0.168405
0.172391
0.182037
0.190493
0.210195
0.235085
0.28865
0.335867
0.356547
0.373119
0.387019
0.397784
0.405179
0.409762
0.412
0.412
0.412
0.412
0.412
0.412
0.412
0.412
0.412
0.412
0.412
0.211551
0.201684
0.191525
0.182616
0.175333
0.170138
0.166885
0.16495
0.163824
0.163171
0.162783
0.162537
0.162359
0.162208
0.16206
0.161901
0.161729
0.161547
0.161371
0.161227
0.161166
0.161275
0.161721
0.162917
0.165895
0.172369
0.176377
0.185186
0.193627
0.212114
0.236909
0.288114
0.334068
0.355132
0.371796
0.385719
0.396545
0.404091
0.408918
0.412
0.412
0.412
0.412
0.412
0.412
0.412
0.412
0.412
0.412
0.412
0.213387
0.204376
0.19486
0.186422
0.17948
0.174459
0.171263
0.169343
0.168219
0.167564
0.167174
0.166928
0.166753
0.166605
0.166462
0.166311
0.166147
0.165974
0.165807
0.165671
0.165615
0.165721
0.166152
0.16729
0.170056
0.175833
0.179822
0.187965
0.196349
0.213846
0.238464
0.287553
0.332322
0.353724
0.370481
0.384429
0.395312
0.402996
0.408037
0.411435
0.412
0.412
0.412
0.412
0.412
0.412
0.412
0.412
0.412
0.412
0.21502
0.206742
0.197783
0.189745
0.18309
0.178217
0.17507
0.173162
0.172039
0.171383
0.170992
0.170746
0.170572
0.170428
0.17029
0.170145
0.169989
0.169825
0.169666
0.169537
0.169485
0.16959
0.170006
0.171091
0.173673
0.178889
0.182836
0.190436
0.198738
0.215411
0.239796
0.286968
0.330627
0.352324
0.369175
0.38315
0.394087
0.401898
0.407133
0.410802
0.412
0.412
0.412
0.412
0.412
0.412
0.412
0.412
0.412
0.412
0.216481
0.208838
0.200369
0.192677
0.186268
0.181522
0.178418
0.17652
0.175396
0.174737
0.174345
0.174099
0.173926
0.173785
0.173651
0.173512
0.173362
0.173205
0.173053
0.172931
0.172883
0.172986
0.173389
0.174429
0.176852
0.18161
0.185499
0.192649
0.200851
0.216829
0.240937
0.286363
0.328979
0.350936
0.367879
0.381884
0.392873
0.400801
0.406213
0.410108
0.412
0.412
0.412
0.412
0.412
0.412
0.412
0.412
0.412
0.412
0.217796
0.210706
0.202673
0.195287
0.189091
0.184456
0.18139
0.179499
0.178374
0.177711
0.177317
0.17707
0.176899
0.17676
0.17663
0.176495
0.176351
0.176201
0.176055
0.175939
0.175894
0.175995
0.176387
0.177386
0.179672
0.184049
0.187872
0.194643
0.202734
0.218114
0.241916
0.28574
0.327376
0.34956
0.366594
0.38063
0.39167
0.399707
0.405281
0.409371
0.412
0.412
0.412
0.412
0.412
0.412
0.412
0.412
0.412
0.412
0.218984
0.212381
0.20474
0.197625
0.191617
0.187082
0.184049
0.182164
0.181035
0.180369
0.179972
0.179725
0.179554
0.179418
0.179291
0.17916
0.179021
0.178876
0.178737
0.178625
0.178583
0.178683
0.179065
0.180028
0.182192
0.186249
0.19
0.196446
0.20442
0.219282
0.242754
0.285103
0.325817
0.348199
0.365322
0.379391
0.39048
0.398619
0.404342
0.408602
0.411668
0.412
0.412
0.412
0.412
0.412
0.412
0.412
0.412
0.412
0.220061
0.213889
0.206601
0.199733
0.193893
0.189447
0.186444
0.184563
0.183431
0.18276
0.182361
0.182112
0.181942
0.181807
0.181683
0.181556
0.181422
0.181282
0.181148
0.18104
0.181001
0.1811
0.181472
0.182403
0.18446
0.188243
0.191919
0.198084
0.205938
0.220342
0.24347
0.284455
0.324299
0.346854
0.364064
0.378168
0.389304
0.397538
0.4034
0.407814
0.411129
0.412
0.412
0.412
0.412
0.412
0.412
0.412
0.412
0.412
0.22104
0.215252
0.208286
0.201642
0.195953
0.191588
0.188613
0.186735
0.185599
0.184924
0.184521
0.184271
0.184101
0.183968
0.183846
0.183723
0.183593
0.183457
0.183327
0.183224
0.183186
0.183284
0.183649
0.18455
0.186511
0.190059
0.193659
0.199578
0.207311
0.221307
0.244081
0.2838
0.322822
0.345527
0.362821
0.37696
0.388143
0.396467
0.402457
0.407011
0.410527
0.412
0.412
0.412
0.412
0.412
0.412
0.412
0.412
0.412
0.221932
0.216488
0.209816
0.203378
0.197826
0.193536
0.190586
0.18871
0.187569
0.18689
0.186484
0.186233
0.186063
0.185931
0.185812
0.185691
0.185565
0.185434
0.185308
0.185208
0.185173
0.185269
0.185626
0.186499
0.188375
0.191719
0.195243
0.200944
0.208556
0.222186
0.244598
0.283138
0.321383
0.344217
0.361593
0.375768
0.386997
0.395406
0.401517
0.406199
0.409885
0.412
0.412
0.412
0.412
0.412
0.412
0.412
0.412
0.412
0.222747
0.217612
0.211211
0.204962
0.199537
0.195315
0.192388
0.190514
0.189369
0.188684
0.188276
0.188023
0.187853
0.187722
0.187605
0.187487
0.187364
0.187237
0.187115
0.187018
0.186984
0.18708
0.18743
0.188278
0.190075
0.19324
0.19669
0.202196
0.209689
0.222985
0.245034
0.282474
0.319981
0.342927
0.360382
0.374594
0.385868
0.394356
0.40058
0.405381
0.409214
0.411968
0.412
0.412
0.412
0.412
0.412
0.412
0.412
0.412
0.223493
0.218638
0.212485
0.206412
0.201103
0.196945
0.194039
0.192167
0.191017
0.190328
0.189916
0.189662
0.189491
0.189362
0.189246
0.189131
0.189011
0.188887
0.188768
0.188675
0.188643
0.188738
0.18908
0.189905
0.191632
0.194639
0.198016
0.203347
0.210723
0.223713
0.245399
0.281809
0.318616
0.341656
0.359188
0.373438
0.384755
0.39332
0.399649
0.404561
0.408524
0.411546
0.412
0.412
0.412
0.412
0.412
0.412
0.412
0.412
0.224178
0.219576
0.213651
0.207742
0.202542
0.198442
0.195557
0.193686
0.192531
0.191838
0.191422
0.191166
0.190996
0.190867
0.190753
0.190641
0.190524
0.190403
0.190287
0.190196
0.190166
0.19026
0.190596
0.191399
0.193061
0.195928
0.199234
0.204407
0.211668
0.224376
0.245702
0.281144
0.317286
0.340407
0.358011
0.3723
0.38366
0.392297
0.398726
0.403741
0.40782
0.411041
0.412
0.412
0.412
0.412
0.412
0.412
0.412
0.412
0.224806
0.220435
0.214723
0.208966
0.203867
0.199822
0.196956
0.195085
0.193926
0.193228
0.19281
0.192552
0.192381
0.192253
0.192141
0.192031
0.191916
0.191798
0.191686
0.191597
0.191568
0.191661
0.191991
0.192773
0.194376
0.197118
0.200355
0.205384
0.212533
0.22498
0.245949
0.280483
0.315992
0.339178
0.356853
0.37118
0.382583
0.391289
0.397811
0.402923
0.407107
0.410491
0.412
0.412
0.412
0.412
0.412
0.412
0.412
0.412
0.225383
0.221223
0.215708
0.210095
0.205089
0.201096
0.198248
0.196378
0.195214
0.194512
0.19409
0.193831
0.19366
0.193532
0.193421
0.193313
0.193201
0.193086
0.192976
0.19289
0.192862
0.192954
0.193278
0.194041
0.19559
0.198219
0.20139
0.206287
0.213328
0.22553
0.246149
0.279826
0.314731
0.337972
0.355714
0.37008
0.381524
0.390296
0.396906
0.402108
0.40639
0.409911
0.412
0.412
0.412
0.412
0.412
0.412
0.412
0.412
0.225914
0.221947
0.216615
0.211136
0.206219
0.202275
0.199443
0.197574
0.196406
0.195699
0.195274
0.195013
0.194842
0.194715
0.194605
0.194499
0.194389
0.194277
0.194169
0.194085
0.194059
0.19415
0.194468
0.195213
0.196712
0.199239
0.202346
0.207122
0.214058
0.226031
0.246305
0.279174
0.313503
0.336787
0.354594
0.368999
0.380483
0.389318
0.396012
0.401299
0.40567
0.409309
0.411945
0.412
0.412
0.412
0.412
0.412
0.412
0.412
0.226403
0.222613
0.217452
0.2121
0.207266
0.203367
0.200552
0.198683
0.197511
0.196799
0.196371
0.196109
0.195937
0.19581
0.195702
0.195597
0.19549
0.19538
0.195274
0.195192
0.195167
0.195257
0.19557
0.196298
0.19775
0.200185
0.203231
0.207895
0.214729
0.226487
0.246424
0.27853
0.312308
0.335626
0.353494
0.367937
0.379461
0.388357
0.39513
0.400497
0.404949
0.408692
0.411563
0.412
0.412
0.412
0.412
0.412
0.412
0.412
0.226853
0.223227
0.218226
0.212992
0.208236
0.204381
0.201581
0.199713
0.198536
0.19782
0.197389
0.197125
0.196953
0.196826
0.196719
0.196616
0.196511
0.196403
0.1963
0.19622
0.196195
0.196285
0.196592
0.197304
0.198713
0.201064
0.204051
0.208612
0.215347
0.226901
0.246509
0.277893
0.311145
0.334487
0.352414
0.366895
0.378459
0.387412
0.39426
0.399702
0.404231
0.408067
0.411113
0.412
0.412
0.412
0.412
0.412
0.412
0.412
0.227269
0.223793
0.218941
0.213819
0.209138
0.205323
0.202537
0.20067
0.199489
0.198769
0.198335
0.198069
0.197896
0.197771
0.197664
0.197563
0.197459
0.197353
0.197253
0.197174
0.197151
0.197239
0.197541
0.198238
0.199608
0.201882
0.204813
0.209277
0.215917
0.227277
0.246565
0.277265
0.310013
0.333372
0.351355
0.365874
0.377476
0.386483
0.393402
0.398916
0.403516
0.407435
0.410625
0.412
0.412
0.412
0.412
0.412
0.412
0.412
0.227652
0.224316
0.219604
0.214588
0.209976
0.2062
0.203428
0.201561
0.200376
0.199652
0.199215
0.198948
0.198774
0.198649
0.198543
0.198443
0.198341
0.198237
0.198139
0.198062
0.198039
0.198127
0.198424
0.199106
0.200439
0.202643
0.20552
0.209894
0.216442
0.227619
0.246596
0.276647
0.308912
0.33228
0.350316
0.364873
0.376512
0.385572
0.392558
0.39814
0.402806
0.406801
0.410112
0.412
0.412
0.412
0.412
0.412
0.412
0.412
0.228006
0.224799
0.220218
0.215301
0.210756
0.207016
0.204258
0.202391
0.201203
0.200474
0.200034
0.199765
0.199592
0.199466
0.199362
0.199263
0.199163
0.199061
0.198964
0.198888
0.198866
0.198953
0.199246
0.199914
0.201212
0.203352
0.206177
0.210467
0.216926
0.227929
0.246604
0.27604
0.307842
0.331211
0.349299
0.363892
0.375567
0.384678
0.391728
0.397374
0.402102
0.406166
0.40958
0.412
0.412
0.412
0.412
0.412
0.412
0.412
0.228332
0.225246
0.220788
0.215965
0.211482
0.207777
0.205031
0.203165
0.201973
0.201241
0.200798
0.200528
0.200353
0.200228
0.200125
0.200027
0.199928
0.199828
0.199733
0.199659
0.199637
0.199723
0.200012
0.200667
0.201933
0.204012
0.206788
0.210999
0.217373
0.228209
0.246592
0.275443
0.306801
0.330167
0.348302
0.362931
0.374643
0.383802
0.390913
0.396618
0.401405
0.405532
0.409036
0.411713
0.412
0.412
0.412
0.412
0.412
0.412
0.228633
0.225659
0.221316
0.216583
0.21216
0.208488
0.205754
0.203888
0.202692
0.201956
0.201511
0.201239
0.201064
0.200939
0.200836
0.200739
0.200642
0.200543
0.20045
0.200377
0.200356
0.200441
0.200726
0.201369
0.202604
0.204628
0.207357
0.211494
0.217785
0.228462
0.246562
0.274857
0.30579
0.329146
0.347326
0.361991
0.373738
0.382943
0.390111
0.395874
0.400715
0.404901
0.408485
0.411331
0.412
0.412
0.412
0.412
0.412
0.412
0.228912
0.226041
0.221808
0.217159
0.212792
0.209151
0.206428
0.204563
0.203364
0.202624
0.202176
0.201902
0.201727
0.201602
0.2015
0.201404
0.201308
0.201211
0.201119
0.201048
0.201028
0.201112
0.201392
0.202023
0.20323
0.205203
0.207887
0.211954
0.218165
0.228691
0.246517
0.274283
0.304807
0.328149
0.346372
0.361072
0.372852
0.382102
0.389325
0.395142
0.400034
0.404273
0.40793
0.410911
0.412
0.412
0.412
0.412
0.412
0.412
0.229169
0.226395
0.222264
0.217696
0.213382
0.209771
0.207059
0.205194
0.203992
0.203248
0.202797
0.202522
0.202346
0.202221
0.202119
0.202025
0.201931
0.201835
0.201744
0.201674
0.201654
0.201737
0.202014
0.202634
0.203814
0.20574
0.20838
0.212382
0.218516
0.228897
0.246458
0.273722
0.303853
0.327176
0.34544
0.360173
0.371986
0.381279
0.388553
0.394422
0.399362
0.403651
0.407372
0.410468
0.412
0.412
0.412
0.412
0.412
0.412
0.229406
0.226724
0.222689
0.218196
0.213933
0.21035
0.207648
0.205784
0.204578
0.203831
0.203378
0.203101
0.202924
0.202799
0.202698
0.202605
0.202512
0.202417
0.202328
0.202259
0.20224
0.202322
0.202594
0.203204
0.204359
0.206241
0.20884
0.21278
0.21884
0.229081
0.246388
0.273172
0.302927
0.326227
0.344529
0.359295
0.37114
0.380473
0.387797
0.393714
0.398699
0.403035
0.406815
0.410008
0.412
0.412
0.412
0.412
0.412
0.412
0.229625
0.227028
0.223083
0.218663
0.214448
0.210892
0.2082
0.206336
0.205127
0.204376
0.20392
0.203642
0.203465
0.20334
0.20324
0.203147
0.203055
0.202962
0.202874
0.202806
0.202787
0.202868
0.203137
0.203736
0.204868
0.206709
0.209269
0.21315
0.219139
0.229246
0.246307
0.272635
0.302028
0.325302
0.343639
0.358437
0.370313
0.379686
0.387056
0.393019
0.398047
0.402425
0.406258
0.409536
0.412
0.412
0.412
0.412
0.412
0.412
0.229827
0.227309
0.223451
0.219099
0.21493
0.211399
0.208716
0.206852
0.20564
0.204886
0.204428
0.204148
0.20397
0.203845
0.203746
0.203654
0.203563
0.203471
0.203384
0.203317
0.203298
0.203379
0.203644
0.204234
0.205344
0.207145
0.209668
0.213494
0.219414
0.229394
0.246217
0.272111
0.301155
0.3244
0.342771
0.3576
0.369506
0.378916
0.38633
0.392336
0.397405
0.401823
0.405705
0.409057
0.411696
0.412
0.412
0.412
0.412
0.412
0.230014
0.22757
0.223793
0.219505
0.21538
0.211873
0.2092
0.207336
0.206121
0.205363
0.204903
0.204621
0.204443
0.204318
0.204219
0.204128
0.204038
0.203947
0.203861
0.203795
0.203777
0.203856
0.204118
0.204699
0.205788
0.207553
0.210041
0.213813
0.219667
0.229525
0.24612
0.271599
0.300309
0.323522
0.341924
0.356783
0.368718
0.378163
0.38562
0.391667
0.396773
0.401228
0.405155
0.408573
0.411356
0.412
0.412
0.412
0.412
0.412
0.230186
0.227813
0.224111
0.219885
0.215802
0.212318
0.209652
0.207788
0.20657
0.20581
0.205347
0.205064
0.204885
0.20476
0.204661
0.204571
0.204482
0.204392
0.204307
0.204242
0.204224
0.204303
0.204561
0.205133
0.206202
0.207934
0.210387
0.21411
0.2199
0.22964
0.246016
0.271101
0.299489
0.322667
0.341098
0.355986
0.36795
0.377428
0.384925
0.391011
0.396152
0.400642
0.40461
0.408087
0.410987
0.412
0.412
0.412
0.412
0.412
0.230344
0.228037
0.224408
0.22024
0.216196
0.212733
0.210076
0.208212
0.206991
0.206228
0.205762
0.205478
0.205298
0.205173
0.205075
0.204985
0.204897
0.204808
0.204724
0.20466
0.204642
0.20472
0.204976
0.205539
0.20659
0.20829
0.210711
0.214386
0.220114
0.229741
0.245906
0.270614
0.298694
0.321836
0.340293
0.35521
0.3672
0.376711
0.384245
0.390368
0.395543
0.400065
0.40407
0.4076
0.410599
0.412
0.412
0.412
0.412
0.412
0.23049
0.228245
0.224684
0.220572
0.216565
0.213123
0.210473
0.208609
0.207385
0.206619
0.206151
0.205865
0.205685
0.20556
0.205462
0.205373
0.205285
0.205197
0.205115
0.205051
0.205033
0.205111
0.205363
0.205919
0.206952
0.208622
0.211012
0.214642
0.220311
0.22983
0.245791
0.270141
0.297924
0.321027
0.33951
0.354453
0.36647
0.376011
0.383581
0.389738
0.394944
0.399496
0.403537
0.407115
0.410199
0.412
0.412
0.412
0.412
0.412
0.230625
0.228438
0.224941
0.220881
0.21691
0.213488
0.210845
0.208981
0.207754
0.206984
0.206514
0.206227
0.206046
0.205921
0.205823
0.205735
0.205649
0.205562
0.20548
0.205416
0.205399
0.205476
0.205725
0.206273
0.20729
0.208932
0.211292
0.214879
0.220491
0.229906
0.245672
0.26968
0.297178
0.320241
0.338747
0.353716
0.365758
0.375328
0.382932
0.389122
0.394357
0.398937
0.403009
0.406631
0.409789
0.412
0.412
0.412
0.412
0.412
0.230748
0.228616
0.225181
0.221171
0.217233
0.213829
0.211193
0.209329
0.208099
0.207327
0.206854
0.206566
0.206384
0.206259
0.206162
0.206074
0.205988
0.205902
0.205821
0.205758
0.205741
0.205817
0.206064
0.206604
0.207605
0.209222
0.211553
0.215099
0.220656
0.229971
0.24555
0.269231
0.296456
0.319478
0.338005
0.352999
0.365064
0.374663
0.382298
0.388519
0.393782
0.398388
0.402489
0.406151
0.409372
0.411881
0.412
0.412
0.412
0.412
0.230862
0.228781
0.225404
0.221441
0.217535
0.214149
0.211519
0.209655
0.208422
0.207647
0.207172
0.206883
0.2067
0.206575
0.206478
0.206391
0.206306
0.20622
0.20614
0.206078
0.206061
0.206136
0.20638
0.206914
0.2079
0.209491
0.211795
0.215302
0.220807
0.230026
0.245425
0.268795
0.295757
0.318737
0.337284
0.352301
0.364389
0.374014
0.381679
0.387929
0.393218
0.397848
0.401976
0.405674
0.408953
0.411609
0.412
0.412
0.412
0.412
0.230966
0.228934
0.225611
0.221693
0.217818
0.214448
0.211824
0.20996
0.208725
0.207946
0.20747
0.207179
0.206996
0.206871
0.206773
0.206687
0.206602
0.206518
0.206438
0.206377
0.20636
0.206434
0.206675
0.207202
0.208174
0.209743
0.212021
0.21549
0.220944
0.230072
0.245298
0.268371
0.295081
0.318017
0.336583
0.351623
0.363732
0.373382
0.381075
0.387352
0.392665
0.397317
0.401471
0.405202
0.408532
0.411304
0.412
0.412
0.412
0.412
0.231061
0.229076
0.225804
0.221929
0.218083
0.214729
0.21211
0.210245
0.209008
0.208226
0.207748
0.207456
0.207272
0.207147
0.20705
0.206963
0.20688
0.206796
0.206717
0.206656
0.206639
0.206712
0.206951
0.207472
0.208431
0.209977
0.21223
0.215664
0.221069
0.230108
0.245169
0.267958
0.294427
0.31732
0.335902
0.350963
0.363093
0.372766
0.380486
0.386789
0.392124
0.396797
0.400973
0.404735
0.408111
0.410978
0.412
0.412
0.412
0.412
0.231149
0.229207
0.225984
0.222149
0.21833
0.214991
0.212378
0.210512
0.209272
0.208488
0.208007
0.207714
0.20753
0.207404
0.207307
0.207222
0.207138
0.207055
0.206977
0.206916
0.2069
0.206972
0.207209
0.207723
0.208669
0.210195
0.212424
0.215825
0.221183
0.230137
0.245038
0.267558
0.293795
0.316643
0.33524
0.350322
0.362472
0.372166
0.379911
0.386238
0.391594
0.396287
0.400484
0.404273
0.40769
0.41064
0.412
0.412
0.412
0.412
0.231229
0.229328
0.226152
0.222355
0.218562
0.215237
0.212628
0.210762
0.209519
0.208733
0.20825
0.207955
0.20777
0.207645
0.207548
0.207463
0.20738
0.207297
0.20722
0.20716
0.207143
0.207215
0.207449
0.207958
0.208892
0.210397
0.212605
0.215972
0.221285
0.230158
0.244907
0.267169
0.293184
0.315988
0.334599
0.3497
0.361868
0.371583
0.379351
0.385701
0.391076
0.395786
0.400003
0.403818
0.407272
0.410293
0.412
0.412
0.412
0.412
0.231301
0.22944
0.226307
0.222547
0.218779
0.215467
0.212862
0.210995
0.20975
0.208961
0.208476
0.20818
0.207995
0.207869
0.207772
0.207688
0.207605
0.207523
0.207446
0.207387
0.20737
0.207441
0.207673
0.208176
0.209099
0.210586
0.212771
0.216108
0.221378
0.230172
0.244775
0.266792
0.292594
0.315353
0.333976
0.349095
0.361281
0.371016
0.378805
0.385176
0.39057
0.395296
0.39953
0.403368
0.406856
0.409939
0.412
0.412
0.412
0.412
0.231368
0.229543
0.226452
0.222726
0.218981
0.215682
0.213081
0.211214
0.209966
0.209174
0.208687
0.20839
0.208204
0.208078
0.207982
0.207897
0.207815
0.207734
0.207657
0.207598
0.207582
0.207652
0.207881
0.208379
0.209291
0.210761
0.212926
0.216233
0.22146
0.23018
0.244642
0.266426
0.292024
0.314739
0.333373
0.348509
0.36071
0.370464
0.378274
0.384663
0.390074
0.394815
0.399066
0.402925
0.406444
0.409581
0.411975
0.412
0.412
0.412
0.231428
0.229638
0.226586
0.222894
0.21917
0.215883
0.213286
0.211417
0.210167
0.209373
0.208884
0.208586
0.208399
0.208273
0.208177
0.208092
0.208011
0.20793
0.207854
0.207795
0.207779
0.207848
0.208075
0.208569
0.20947
0.210923
0.213068
0.216347
0.221534
0.230182
0.24451
0.266071
0.291473
0.314144
0.332788
0.34794
0.360157
0.369927
0.377756
0.384164
0.38959
0.394345
0.398611
0.402489
0.406035
0.409221
0.411764
0.412
0.412
0.412
0.231483
0.229726
0.226711
0.223049
0.219347
0.21607
0.213477
0.211608
0.210355
0.209558
0.209067
0.208768
0.20858
0.208454
0.208358
0.208274
0.208193
0.208113
0.208037
0.207979
0.207962
0.208031
0.208256
0.208744
0.209636
0.211073
0.2132
0.216452
0.2216
0.230178
0.244378
0.265727
0.290942
0.313569
0.332221
0.347388
0.35962
0.369405
0.377252
0.383676
0.389117
0.393884
0.398164
0.402059
0.405631
0.408859
0.411515
0.412
0.412
0.412
0.231532
0.229806
0.226827
0.223195
0.219512
0.216246
0.213655
0.211785
0.210529
0.20973
0.209238
0.208937
0.208749
0.208623
0.208527
0.208443
0.208363
0.208283
0.208207
0.208149
0.208133
0.208201
0.208424
0.208907
0.20979
0.211212
0.213321
0.216547
0.221658
0.230169
0.244246
0.265393
0.290429
0.313013
0.331672
0.346853
0.359098
0.368899
0.376761
0.383201
0.388655
0.393433
0.397725
0.401637
0.405231
0.408498
0.411246
0.412
0.412
0.412
0.231576
0.22988
0.226935
0.22333
0.219666
0.216409
0.213822
0.21195
0.210692
0.20989
0.209396
0.209095
0.208906
0.208779
0.208683
0.2086
0.20852
0.20844
0.208365
0.208307
0.208291
0.208358
0.208579
0.209059
0.209933
0.21134
0.213432
0.216633
0.221708
0.230156
0.244115
0.265069
0.289934
0.312475
0.331141
0.346335
0.358593
0.368406
0.376284
0.382738
0.388203
0.392992
0.397295
0.401221
0.404837
0.408138
0.410964
0.412
0.412
0.412
0.231616
0.229948
0.227034
0.223456
0.219809
0.216562
0.213977
0.212104
0.210843
0.210039
0.209544
0.209241
0.209051
0.208924
0.208829
0.208746
0.208666
0.208587
0.208512
0.208454
0.208438
0.208504
0.208723
0.209199
0.210064
0.211459
0.213534
0.216711
0.221752
0.230138
0.243985
0.264756
0.289457
0.311956
0.330628
0.345834
0.358102
0.367928
0.37582
0.382286
0.387763
0.392561
0.396874
0.400813
0.404448
0.40778
0.410674
0.412
0.412
0.412
0.231652
0.230011
0.227127
0.223573
0.219943
0.216704
0.214121
0.212247
0.210984
0.210178
0.20968
0.209376
0.209186
0.209059
0.208963
0.20888
0.208801
0.208722
0.208648
0.208591
0.208574
0.20864
0.208857
0.209328
0.210186
0.211567
0.213627
0.216782
0.221789
0.230116
0.243855
0.264452
0.288997
0.311455
0.330131
0.345348
0.357627
0.367465
0.375368
0.381847
0.387333
0.39214
0.396461
0.400412
0.404064
0.407425
0.410377
0.412
0.412
0.412
0.231684
0.230068
0.227212
0.223682
0.220068
0.216836
0.214256
0.21238
0.211115
0.210306
0.209807
0.209501
0.209311
0.209184
0.209088
0.209005
0.208926
0.208848
0.208774
0.208717
0.2087
0.208765
0.20898
0.209448
0.210298
0.211667
0.213712
0.216845
0.221821
0.230091
0.243727
0.264157
0.288554
0.310971
0.329651
0.344878
0.357167
0.367014
0.374929
0.381418
0.386913
0.391727
0.396057
0.400018
0.403686
0.407072
0.410076
0.412
0.412
0.412
0.231712
0.23012
0.227291
0.223783
0.220184
0.216959
0.214381
0.212504
0.211236
0.210425
0.209923
0.209617
0.209426
0.209299
0.209203
0.209121
0.209042
0.208964
0.20889
0.208833
0.208816
0.208881
0.209094
0.209558
0.210401
0.211759
0.213789
0.216902
0.221846
0.230063
0.2436
0.263872
0.288126
0.310505
0.329188
0.344424
0.356721
0.366577
0.374502
0.381001
0.386504
0.391325
0.395661
0.399632
0.403313
0.406723
0.409773
0.412
0.412
0.412
0.231737
0.230167
0.227364
0.223877
0.220291
0.217074
0.214496
0.212618
0.211348
0.210534
0.210031
0.209724
0.209533
0.209405
0.209309
0.209227
0.209148
0.209071
0.208997
0.20894
0.208923
0.208987
0.209199
0.209659
0.210495
0.211842
0.213859
0.216952
0.221867
0.230031
0.243474
0.263596
0.287715
0.310055
0.32874
0.343984
0.356289
0.366154
0.374088
0.380595
0.386105
0.390931
0.395274
0.399253
0.402947
0.406378
0.409468
0.411884
0.412
0.412
0.231759
0.23021
0.227431
0.223965
0.220391
0.21718
0.214604
0.212724
0.211451
0.210635
0.210131
0.209823
0.209631
0.209503
0.209407
0.209325
0.209247
0.209169
0.209096
0.209039
0.209022
0.209085
0.209296
0.209752
0.210582
0.211919
0.213922
0.216996
0.221882
0.229997
0.24335
0.263329
0.287319
0.309621
0.328308
0.343559
0.355871
0.365743
0.373685
0.3802
0.385715
0.390547
0.394895
0.398881
0.402587
0.406036
0.409163
0.411689
0.412
0.412
0.231777
0.23025
0.227493
0.224045
0.220484
0.217279
0.214703
0.212822
0.211546
0.210729
0.210223
0.209913
0.209721
0.209592
0.209497
0.209415
0.209337
0.209259
0.209187
0.20913
0.209112
0.209175
0.209384
0.209837
0.21066
0.211988
0.213979
0.217034
0.221893
0.22996
0.243226
0.263071
0.286937
0.309203
0.32789
0.343149
0.355466
0.365345
0.373294
0.379815
0.385336
0.390171
0.394524
0.398517
0.402232
0.405699
0.408858
0.411473
0.412
0.412
0.231793
0.230285
0.22755
0.22412
0.22057
0.21737
0.214795
0.212912
0.211634
0.210814
0.210307
0.209996
0.209803
0.209675
0.209579
0.209497
0.209419
0.209342
0.20927
0.209213
0.209195
0.209257
0.209465
0.209915
0.210732
0.21205
0.214029
0.217068
0.2219
0.22992
0.243105
0.26282
0.28657
0.3088
0.327488
0.342752
0.355075
0.364959
0.372914
0.379441
0.384966
0.389805
0.394161
0.39816
0.401884
0.405366
0.408555
0.411244
0.412
0.412
0.231807
0.230317
0.227603
0.224189
0.22065
0.217454
0.21488
0.212995
0.211715
0.210893
0.210384
0.210072
0.209878
0.20975
0.209654
0.209572
0.209495
0.209418
0.209346
0.209289
0.209271
0.209333
0.209538
0.209985
0.210797
0.212106
0.214074
0.217096
0.221903
0.229879
0.242985
0.262578
0.286217
0.308413
0.3271
0.342369
0.354696
0.364585
0.372545
0.379077
0.384606
0.389447
0.393806
0.39781
0.401542
0.405038
0.408253
0.411007
0.412
0.412
0.231818
0.230346
0.227651
0.224253
0.220723
0.217532
0.214959
0.213071
0.211789
0.210965
0.210454
0.210142
0.209947
0.209818
0.209723
0.209641
0.209563
0.209487
0.209415
0.209358
0.20934
0.209401
0.209605
0.210049
0.210856
0.212157
0.214114
0.217119
0.221902
0.229836
0.242867
0.262343
0.285877
0.30804
0.326727
0.342
0.35433
0.364223
0.372188
0.378723
0.384255
0.389098
0.39346
0.397467
0.401206
0.404714
0.407954
0.410764
0.412
0.412
0.231827
0.230372
0.227695
0.224311
0.220791
0.217604
0.21503
0.213141
0.211856
0.21103
0.210518
0.210205
0.21001
0.209881
0.209785
0.209703
0.209626
0.20955
0.209478
0.209421
0.209403
0.209463
0.209666
0.210107
0.210909
0.212201
0.214148
0.217138
0.221898
0.229791
0.24275
0.262117
0.285551
0.307681
0.326367
0.341643
0.353977
0.363872
0.37184
0.378379
0.383912
0.388757
0.39312
0.397131
0.400876
0.404396
0.407657
0.410518
0.412
0.412
0.231835
0.230395
0.227735
0.224365
0.220854
0.21767
0.215096
0.213205
0.211918
0.21109
0.210576
0.210262
0.210066
0.209937
0.209841
0.209759
0.209682
0.209606
0.209534
0.209478
0.20946
0.209519
0.209721
0.210159
0.210956
0.212241
0.214178
0.217154
0.221891
0.229744
0.242635
0.261897
0.285237
0.307336
0.32602
0.341299
0.353635
0.363532
0.371503
0.378044
0.383579
0.388425
0.392789
0.396802
0.400553
0.404082
0.407363
0.410268
0.412
0.412
0.23184
0.230415
0.227772
0.224415
0.220911
0.217731
0.215157
0.213264
0.211974
0.211143
0.210628
0.210313
0.210117
0.209987
0.209892
0.20981
0.209733
0.209657
0.209585
0.209529
0.209511
0.209569