/*--------------------------------*- C++ -*----------------------------------*\
| =========                 |                                                 |
| \\      /  F ield         | OpenFOAM: The Open Source CFD Toolbox           |
|  \\    /   O peration     | Version:  v1912                                 |
|   \\  /    A nd           | Website:  www.openfoam.com                      |
|    \\/     M anipulation  |                                                 |
\*---------------------------------------------------------------------------*/
FoamFile
{
    version     2.0;
    format      ascii;
    class       surfaceScalarField;
    location    "31536000";
    object      U;
}
// * * * * * * * * * * * * * * * * * * * * * * * * * * * * * * * * * * * * * //

dimensions      [0 1 -1 0 0 0 0];
oriented        oriented;


internalField   nonuniform List<scalar> 
8365
(
1.00693e-13
-5.13722e-14
-2.70019e-14
4.29896e-13
7.86512e-16
4.0906e-16
8.1205e-15
-3.15327e-14
6.83785e-15
-4.81903e-14
6.27583e-15
-5.64522e-14
6.06838e-15
-5.95393e-14
6.00013e-15
-6.06306e-14
5.98549e-15
-6.09106e-14
5.98567e-15
-6.0922e-14
5.98662e-15
-6.09053e-14
5.98677e-15
-6.09024e-14
5.98678e-15
-6.09024e-14
5.98681e-15
-6.09023e-14
5.98684e-15
-6.09018e-14
5.98702e-15
-6.09016e-14
5.98779e-15
-6.0898e-14
5.98772e-15
-6.08859e-14
5.98693e-15
-6.08997e-14
5.9868e-15
-6.0902e-14
5.98679e-15
-6.09022e-14
5.98676e-15
-6.09022e-14
5.98648e-15
-6.09028e-14
5.98493e-15
-6.09081e-14
5.98268e-15
-6.09347e-14
5.98173e-15
-6.0954e-14
5.98173e-15
-6.09538e-14
5.89032e-15
-6.09636e-14
-3.2191e-12
-4.22188e-13
-3.21362e-12
-8.24373e-11
-2.32846e-06
-4.46995e-12
2.65249e-08
-3.03455e-09
-1.05423e-08
3.70047e-09
-2.4362e-08
8.9128e-10
-4.0126e-08
1.04336e-09
-7.2757e-08
2.00874e-09
-1.40452e-07
4.61039e-09
-1.03948e-07
9.15606e-10
-9.01425e-08
-1.98832e-09
-8.45875e-08
-1.06698e-09
-8.10515e-08
-8.41647e-10
-7.85136e-08
-7.30181e-10
-7.64399e-08
-6.78248e-10
-7.47679e-08
-6.33372e-10
-7.34769e-08
-5.90788e-10
-7.23746e-08
-5.69723e-10
-7.11534e-08
-5.82986e-10
-6.91689e-08
-6.68227e-10
-6.35881e-08
-1.06975e-09
-3.81166e-10
1.87156e-13
-1.80661e-13
-2.82619e-14
8.56262e-13
-1.72941e-15
4.54588e-14
2.62009e-15
-2.52748e-14
7.33486e-16
-4.93445e-14
2.21579e-16
-5.69738e-14
4.88537e-17
-5.96993e-14
8.71354e-18
-6.06654e-14
1.01699e-17
-6.09172e-14
1.33312e-17
-6.09313e-14
1.35603e-17
-6.09179e-14
1.35279e-17
-6.09154e-14
1.35439e-17
-6.09153e-14
1.36558e-17
-6.09152e-14
1.36836e-17
-6.09148e-14
1.43639e-17
-6.09146e-14
1.67606e-17
-6.09117e-14
1.37765e-17
-6.09013e-14
1.35948e-17
-6.09127e-14
1.35935e-17
-6.09147e-14
1.35956e-17
-6.09148e-14
1.34733e-17
-6.09149e-14
1.24429e-17
-6.09155e-14
7.01701e-18
-6.09205e-14
3.19916e-18
-6.09468e-14
2.83706e-18
-6.09685e-14
2.35763e-18
-6.09778e-14
-3.12401e-16
-6.10039e-14
-2.35877e-11
-1.69249e-12
-7.70489e-12
-6.97305e-10
-4.38709e-07
-4.59954e-11
7.68116e-10
-4.28435e-09
-9.63167e-09
4.44989e-09
-2.23494e-08
1.68483e-09
-3.60632e-08
1.89759e-09
-5.9813e-08
3.45812e-09
-1.33354e-07
6.9643e-09
-1.01443e-07
3.18035e-09
-8.69999e-08
-4.01086e-09
-8.14339e-08
-2.11599e-09
-7.79187e-08
-1.66582e-09
-7.5408e-08
-1.44422e-09
-7.33572e-08
-1.34176e-09
-7.17013e-08
-1.25359e-09
-7.04265e-08
-1.1692e-09
-6.93493e-08
-1.12649e-09
-6.8181e-08
-1.14972e-09
-6.63675e-08
-1.30574e-09
-6.20894e-08
-1.97752e-09
-5.17257e-10
-9.73627e-12
-5.55108e-10
-1.88902e-13
-1.91436e-13
-2.83574e-16
1.72992e-13
1.72801e-15
6.14922e-15
-2.85065e-16
-5.04263e-14
-2.06217e-16
-5.85441e-14
-9.48699e-17
-6.01842e-14
-2.7706e-17
-6.07794e-14
5.52895e-18
-6.09396e-14
1.13409e-17
-6.09517e-14
9.89142e-18
-6.09449e-14
9.52214e-18
-6.09434e-14
9.54004e-18
-6.09433e-14
9.68893e-18
-6.09432e-14
9.66541e-18
-6.09428e-14
1.0517e-17
-6.09426e-14
1.33848e-17
-6.0941e-14
8.13475e-18
-6.0935e-14
9.36751e-18
-6.09411e-14
9.63792e-18
-6.09422e-14
9.65712e-18
-6.09423e-14
9.47257e-18
-6.09424e-14
8.07778e-18
-6.09431e-14
5.7524e-19
-6.09475e-14
-2.11838e-18
-6.09705e-14
-5.99087e-19
-6.0979e-14
-1.50311e-20
-6.09781e-14
-4.36025e-16
-6.10119e-14
-1.39356e-10
-2.85082e-12
-1.90054e-11
-4.95238e-10
-2.09411e-07
-3.21508e-09
-1.8455e-08
-3.4777e-09
-9.51543e-09
4.36789e-09
-2.09812e-08
2.36716e-09
-3.3278e-08
2.62803e-09
-5.19801e-08
4.5892e-09
-1.3266e-07
9.12323e-09
-1.03599e-07
6.54971e-09
-8.73262e-08
-6.19435e-09
-8.16652e-08
-3.15651e-09
-7.8109e-08
-2.47969e-09
-7.55797e-08
-2.14751e-09
-7.35122e-08
-1.99523e-09
-7.18401e-08
-1.86449e-09
-7.05573e-08
-1.73815e-09
-6.94845e-08
-1.67284e-09
-6.83452e-08
-1.70322e-09
-6.66473e-08
-1.91942e-09
-6.30311e-08
-2.79781e-09
-6.80584e-10
2.29669e-11
-4.57441e-10
-1.11208e-13
1.43712e-12
3.08393e-15
3.89183e-13
2.04494e-15
9.45801e-14
-9.03189e-16
-4.00297e-14
-6.83453e-16
-6.17141e-14
-2.434e-16
-6.1033e-14
-6.52361e-17
-6.09813e-14
-2.05123e-18
-6.0982e-14
6.17e-18
-6.0983e-14
3.31635e-18
-6.09854e-14
2.64104e-18
-6.09858e-14
2.65613e-18
-6.09856e-14
2.81647e-18
-6.09855e-14
2.74987e-18
-6.09854e-14
3.58201e-18
-6.09852e-14
6.27218e-18
-6.09853e-14
-1.83351e-19
-6.09864e-14
2.29684e-18
-6.09846e-14
2.83213e-18
-6.09841e-14
2.85185e-18
-6.0984e-14
2.58865e-18
-6.09843e-14
9.61628e-19
-6.09853e-14
-7.69611e-18
-6.09883e-14
-6.55165e-18
-6.09994e-14
-1.48143e-18
-6.09872e-14
-5.86044e-18
-6.0979e-14
-8.01412e-16
-6.11796e-14
-2.36773e-10
-3.24514e-12
-3.83812e-10
-4.46688e-10
-6.97847e-08
-1.39316e-09
-2.84536e-08
-3.09763e-09
-9.76045e-09
4.13185e-09
-1.97665e-08
2.92121e-09
-3.08077e-08
3.24892e-09
-4.59229e-08
5.47153e-09
-1.31098e-07
1.0971e-08
-1.02159e-07
6.74975e-08
-8.75281e-08
-8.16556e-09
-8.18699e-08
-4.17817e-09
-7.82851e-08
-3.28207e-09
-7.57437e-08
-2.83953e-09
-7.36606e-08
-2.6387e-09
-7.19725e-08
-2.46619e-09
-7.06833e-08
-2.29761e-09
-6.96174e-08
-2.20871e-09
-6.85098e-08
-2.24349e-09
-6.69289e-08
-2.50979e-09
-6.38779e-08
-3.54367e-09
-8.61768e-10
8.99148e-11
-4.51927e-10
-6.5504e-12
-2.19666e-10
-8.20364e-14
-4.18119e-13
-4.31987e-16
1.83286e-13
-1.66612e-16
1.77184e-14
-1.02388e-15
-6.56515e-14
-3.24812e-16
-6.14242e-14
-9.07769e-17
-6.11502e-14
-1.0564e-17
-6.10307e-14
-1.24423e-18
-6.10151e-14
-4.85441e-18
-6.10263e-14
-5.70619e-18
-6.10287e-14
-5.69733e-18
-6.10286e-14
-5.5618e-18
-6.10285e-14
-5.64981e-18
-6.10286e-14
-5.04645e-18
-6.10284e-14
-3.29519e-18
-6.10303e-14
-9.394e-18
-6.10392e-14
-6.16963e-18
-6.10294e-14
-5.4686e-18
-6.10271e-14
-5.48445e-18
-6.10268e-14
-5.85591e-18
-6.10273e-14
-7.50828e-18
-6.10287e-14
-1.50631e-17
-6.103e-14
-7.57137e-18
-6.10154e-14
-2.27695e-17
-6.09811e-14
-2.89784e-15
-6.1728e-14
-9.97256e-13
-2.22543e-13
-3.61579e-10
-2.50791e-11
-3.19777e-10
-4.29431e-10
-2.64373e-08
-1.33302e-09
-2.93881e-08
-2.75601e-09
-1.00924e-08
3.87366e-09
-1.86897e-08
3.35448e-09
-2.86116e-08
3.7726e-09
-4.10271e-08
6.15521e-09
-6.46258e-08
1.16934e-08
-8.07585e-08
1.87894e-08
-8.74886e-08
-6.61639e-09
-8.20462e-08
-5.15918e-09
-7.84471e-08
-4.0716e-09
-7.59002e-08
-3.51977e-09
-7.38026e-08
-3.27218e-09
-7.20985e-08
-3.05882e-09
-7.08046e-08
-2.84758e-09
-6.97476e-08
-2.73411e-09
-6.86737e-08
-2.77061e-09
-6.72086e-08
-3.07759e-09
-6.4643e-08
-4.22579e-09
-1.05385e-09
4.15633e-11
-4.3663e-10
-2.64002e-15
-3.69851e-10
-2.39508e-12
-5.42891e-11
-4.64017e-14
-3.94785e-13
-1.42071e-15
1.11969e-13
-3.54423e-16
-5.96579e-14
-1.72267e-16
-5.819e-14
-9.31628e-17
-6.11671e-14
-1.51171e-17
-6.10476e-14
-7.13993e-18
-6.10251e-14
-1.04503e-17
-6.10389e-14
-1.12393e-17
-6.10423e-14
-1.12459e-17
-6.10424e-14
-1.11748e-17
-6.10423e-14
-1.12617e-17
-6.10427e-14
-1.10121e-17
-6.10427e-14
-1.05847e-17
-6.10453e-14
-1.4795e-17
-6.10574e-14
-1.17802e-17
-6.1045e-14
-1.11357e-17
-6.10422e-14
-1.12126e-17
-6.1042e-14
-1.16491e-17
-6.10423e-14
-1.30263e-17
-6.1043e-14
-1.55199e-17
-6.10418e-14
-3.49557e-18
-6.0985e-14
-1.24511e-16
-6.10024e-14
-4.7753e-12
-5.48984e-13
-1.56604e-11
-1.36022e-10
-5.51695e-10
-2.85856e-10
-4.22335e-10
-4.22455e-10
-1.82423e-08
-1.24669e-09
-2.73632e-08
-2.43851e-09
-1.03518e-08
3.6531e-09
-1.77301e-08
3.68631e-09
-2.66545e-08
4.21023e-09
-3.70334e-08
6.6831e-09
-4.8385e-08
1.20309e-08
-7.85408e-08
1.50014e-08
-8.75656e-08
-3.74751e-09
-8.21969e-08
-6.11519e-09
-7.85952e-08
-4.84729e-09
-7.60494e-08
-4.18775e-09
-7.39385e-08
-3.89572e-09
-7.22182e-08
-3.64252e-09
-7.09211e-08
-3.38807e-09
-6.98747e-08
-3.24905e-09
-6.88359e-08
-3.28475e-09
-6.74836e-08
-3.62374e-09
-6.53372e-08
-4.85297e-09
-1.25168e-09
2.80626e-11
-4.18796e-10
1.03708e-11
-3.85782e-10
-5.12232e-12
-2.55789e-10
-9.69796e-13
-1.97421e-11
-3.62135e-14
-3.04191e-13
3.35863e-15
2.71601e-15
-7.84191e-17
-5.33066e-14
-9.92861e-17
-6.15337e-14
-1.12735e-17
-6.09958e-14
-6.98933e-18
-6.10001e-14
-9.06515e-18
-6.1009e-14
-9.59623e-18
-6.10116e-14
-9.65551e-18
-6.10122e-14
-9.68882e-18
-6.10126e-14
-9.79309e-18
-6.10134e-14
-9.85837e-18
-6.10139e-14
-1.03495e-17
-6.1016e-14
-1.223e-17
-6.10244e-14
-1.0394e-17
-6.10174e-14
-1.00425e-17
-6.1016e-14
-1.01211e-17
-6.10161e-14
-1.03157e-17
-6.10154e-14
-1.05581e-17
-6.10123e-14
-1.86738e-17
-6.09998e-14
-1.45196e-15
-6.13707e-14
-4.51847e-15
-9.06021e-14
-2.55659e-11
-1.4745e-12
-5.91001e-11
-1.99369e-10
-5.39786e-10
-3.11571e-10
-5.22546e-10
-4.23014e-10
-1.41625e-08
-1.16738e-09
-2.50854e-08
-2.14616e-09
-1.05077e-08
3.46571e-09
-1.68683e-08
3.93607e-09
-2.49056e-08
4.57203e-09
-3.37e-08
7.08653e-09
-4.09568e-08
1.2178e-08
-7.88105e-08
1.52178e-08
-8.8003e-08
-2.22485e-10
-8.2329e-08
-7.08475e-09
-7.87296e-08
-5.6089e-09
-7.61916e-08
-4.84303e-09
-7.40685e-08
-4.50936e-09
-7.23318e-08
-4.21744e-09
-7.10328e-08
-3.91912e-09
-6.99985e-08
-3.75359e-09
-6.89955e-08
-3.78612e-09
-6.7752e-08
-4.14925e-09
-6.59692e-08
-5.4325e-09
-1.45149e-09
4.20943e-11
-4.01106e-10
-1.05492e-11
-3.85422e-10
-2.07065e-12
-2.97444e-10
-6.10565e-12
-1.87906e-10
-1.14626e-12
-2.3937e-11
-8.92388e-15
-5.79713e-14
-1.72666e-15
-8.07041e-14
2.44006e-16
-5.50432e-14
-1.11957e-17
-6.1082e-14
-4.24805e-18
-6.09957e-14
-4.665e-18
-6.09936e-14
-4.76793e-18
-6.09929e-14
-4.75733e-18
-6.09922e-14
-4.76056e-18
-6.09917e-14
-4.77931e-18
-6.09913e-14
-4.84655e-18
-6.09909e-14
-5.27928e-18
-6.09907e-14
-5.61264e-18
-6.09919e-14
-4.95769e-18
-6.09898e-14
-4.82999e-18
-6.09891e-14
-4.82461e-18
-6.09888e-14
-4.77854e-18
-6.09889e-14
-6.13318e-18
-6.09898e-14
-2.78816e-16
-6.10581e-14
-2.50793e-12
-3.12517e-13
-7.06548e-12
-5.96905e-11
-5.90726e-11
-1.27115e-10
-7.71539e-11
-2.13891e-10
-4.45532e-10
-3.18504e-10
-6.08576e-10
-4.21839e-10
-1.17348e-08
-1.09755e-09
-2.29051e-08
-1.87968e-09
-1.05725e-08
3.30527e-09
-1.60881e-08
4.11977e-09
-2.33382e-08
4.86731e-09
-3.08746e-08
7.38954e-09
-3.59366e-08
1.22038e-08
-8.03789e-08
1.58209e-08
-8.88864e-08
3.75003e-09
-8.24484e-08
-8.1122e-09
-7.88509e-08
-6.35674e-09
-7.63271e-08
-5.4852e-09
-7.41929e-08
-5.11314e-09
-7.24394e-08
-4.78375e-09
-7.11396e-08
-4.44077e-09
-7.01188e-08
-4.24778e-09
-6.91519e-08
-4.27501e-09
-6.80122e-08
-4.65516e-09
-6.65464e-08
-5.9705e-09
-1.65054e-09
5.09441e-11
-3.83829e-10
-1.96802e-12
-3.80877e-10
-1.63739e-11
-3.09305e-10
-7.80989e-12
-2.36058e-10
-6.87285e-12
-1.59815e-10
-3.02597e-12
-6.03257e-11
-4.44725e-13
-9.04184e-12
-4.79828e-15
-7.25178e-14
-3.35438e-15
-9.80249e-14
-2.89985e-15
-9.21869e-14
-2.63034e-15
-8.88282e-14
-2.45019e-15
-8.67158e-14
-2.30806e-15
-8.5166e-14
-2.17583e-15
-8.38215e-14
-2.03845e-15
-8.24697e-14
-1.89008e-15
-8.10183e-14
-1.73203e-15
-7.94415e-14
-1.57325e-15
-7.77919e-14
-1.43271e-15
-7.62049e-14
-1.34383e-15
-7.49339e-14
-1.36412e-15
-7.44076e-14
-1.60749e-15
-7.53785e-14
-2.37618e-15
-7.94409e-14
-3.86081e-13
-1.27985e-13
-1.36105e-11
-8.93265e-12
-2.81713e-11
-1.39244e-10
-8.5898e-11
-1.78249e-10
-8.82944e-11
-2.22361e-10
-3.97774e-10
-3.21067e-10
-6.77346e-10
-4.18783e-10
-1.0104e-08
-1.03522e-09
-2.09218e-08
-1.63857e-09
-1.0562e-08
3.1662e-09
-1.53768e-08
4.25028e-09
-2.19295e-08
5.10444e-09
-2.84511e-08
7.61095e-09
-3.21152e-08
1.21443e-08
-7.80616e-08
1.62993e-08
-8.18196e-08
1.1705e-07
-8.24778e-08
-8.43543e-09
-7.89586e-08
-7.08366e-09
-7.64563e-08
-6.11383e-09
-7.43119e-08
-5.70714e-09
-7.25411e-08
-5.34165e-09
-7.12415e-08
-4.95308e-09
-7.02356e-08
-4.73173e-09
-6.93045e-08
-4.7517e-09
-6.82633e-08
-5.14252e-09
-6.7075e-08
-6.47207e-09
-1.8469e-09
5.60484e-11
-3.67166e-10
8.05897e-12
-3.73833e-10
-1.42394e-11
-3.1477e-10
-1.90121e-11
-2.52914e-10
-1.43598e-11
-1.99556e-10
-9.08357e-12
-1.56443e-10
-7.94601e-12
-1.26794e-10
-6.64205e-12
-9.32366e-11
-5.49548e-12
-7.13516e-11
-4.8275e-12
-5.96669e-11
-4.41935e-12
-5.30127e-11
-4.14265e-12
-4.88684e-11
-3.9224e-12
-4.5852e-11
-3.71593e-12
-4.32525e-11
-3.4996e-12
-4.06525e-11
-3.26356e-12
-3.78718e-11
-3.00902e-12
-3.48602e-11
-2.75012e-12
-3.17166e-11
-2.51785e-12
-2.86952e-11
-2.3681e-12
-2.62689e-11
-2.39726e-12
-2.52357e-11
-2.78725e-12
-2.69977e-11
-3.96404e-12
-3.45478e-11
-7.98435e-12
-5.66989e-11
-3.68358e-11
-1.20434e-10
-4.21122e-11
-1.59445e-10
-9.34724e-11
-1.93563e-10
-9.7926e-11
-2.27353e-10
-3.71391e-10
-3.20536e-10
-7.31958e-10
-4.14071e-10
-8.91422e-09
-9.78066e-10
-1.91514e-08
-1.42161e-09
-1.04915e-08
3.04395e-09
-1.47244e-08
4.33789e-09
-2.06598e-08
5.29088e-09
-2.63525e-08
7.76565e-09
-2.90749e-08
1.20246e-08
-2.8967e-08
1.57466e-08
-6.47156e-08
1.05607e-08
-8.23939e-08
-5.4691e-09
-7.9052e-08
-7.78078e-09
-7.65796e-08
-6.72839e-09
-7.44259e-08
-6.29143e-09
-7.26368e-08
-5.89131e-09
-7.13386e-08
-5.45612e-09
-7.03485e-08
-5.20554e-09
-6.9453e-08
-5.21651e-09
-6.85046e-08
-5.61237e-09
-6.75599e-08
-6.94155e-09
-2.03919e-09
5.90423e-11
-3.51236e-10
1.63902e-11
-3.65107e-10
-8.70214e-12
-3.1682e-10
-1.89046e-11
-2.61918e-10
-2.26487e-11
-2.1553e-10
-2.30072e-11
-1.81684e-10
-2.08754e-11
-1.59732e-10
-1.82394e-11
-1.46307e-10
-1.6514e-11
-1.37681e-10
-1.55453e-11
-1.32503e-10
-1.49431e-11
-1.29395e-10
-1.45008e-11
-1.2742e-10
-1.41163e-11
-1.26003e-10
-1.37295e-11
-1.24808e-10
-1.33167e-11
-1.23643e-10
-1.28723e-11
-1.22409e-10
-1.24135e-11
-1.21073e-10
-1.19803e-11
-1.19669e-10
-1.16447e-11
-1.18311e-10
-1.15265e-11
-1.17224e-10
-1.18362e-11
-1.16803e-10
-1.3031e-11
-1.17745e-10
-1.64759e-11
-1.21436e-10
-2.70277e-11
-1.31107e-10
-5.30396e-11
-1.50906e-10
-4.79511e-11
-1.69211e-10
-9.51935e-11
-2.01018e-10
-1.06174e-10
-2.30016e-10
-3.55259e-10
-3.17666e-10
-7.74988e-10
-4.07936e-10
-7.99444e-09
-9.24261e-10
-1.75816e-08
-1.22715e-09
-1.03739e-08
2.93493e-09
-1.4123e-08
4.39079e-09
-1.95121e-08
5.43327e-09
-2.45202e-08
7.86557e-09
-2.66368e-08
1.18663e-08
-2.67549e-08
1.53153e-08
-6.82989e-08
1.13022e-08
-8.26035e-08
-2.24716e-09
-7.9135e-08
-8.47726e-09
-7.66975e-08
-7.32874e-09
-7.45351e-08
-6.86609e-09
-7.27268e-08
-6.43295e-09
-7.14309e-08
-5.94998e-09
-7.04577e-08
-5.66932e-09
-6.95969e-08
-5.66979e-09
-6.87356e-08
-6.06573e-09
-6.80058e-08
-7.38263e-09
-2.22651e-09
6.07354e-11
-3.36067e-10
2.33644e-11
-3.55259e-10
-3.18665e-12
-3.16364e-10
-1.60513e-11
-2.67104e-10
-2.28763e-11
-2.2477e-10
-2.58807e-11
-1.93379e-10
-2.67142e-11
-1.73126e-10
-2.68212e-11
-1.61193e-10
-2.66934e-11
-1.54255e-10
-2.65356e-11
-1.50212e-10
-2.63813e-11
-1.47819e-10
-2.62152e-11
-1.46322e-10
-2.60321e-11
-1.45285e-10
-2.58203e-11
-1.44449e-10
-2.55822e-11
-1.4367e-10
-2.53225e-11
-1.4287e-10
-2.50601e-11
-1.42025e-10
-2.48284e-11
-1.41152e-10
-2.46867e-11
-1.40321e-10
-2.47344e-11
-1.39678e-10
-2.51487e-11
-1.39485e-10
-2.63133e-11
-1.40217e-10
-2.92969e-11
-1.42815e-10
-3.71866e-11
-1.49302e-10
-5.75649e-11
-1.62806e-10
-5.20416e-11
-1.75156e-10
-9.61456e-11
-2.04997e-10
-1.13188e-10
-2.30971e-10
-3.44634e-10
-3.13089e-10
-8.08417e-10
-4.00599e-10
-7.25351e-09
-8.72679e-10
-1.61911e-08
-1.05341e-09
-1.02203e-08
2.83631e-09
-1.3566e-08
4.41555e-09
-1.84718e-08
5.53744e-09
-2.29087e-08
7.92028e-09
-2.45905e-08
1.16803e-08
-2.41127e-08
1.48818e-08
-6.84222e-08
1.22905e-08
-8.32016e-08
1.36201e-09
-7.92128e-08
-9.20897e-09
-7.68104e-08
-7.91516e-09
-7.46398e-08
-7.43125e-09
-7.28111e-08
-6.9668e-09
-7.15184e-08
-6.43472e-09
-7.0563e-08
-6.1232e-09
-6.97362e-08
-6.11187e-09
-6.89562e-08
-6.50354e-09
-6.84161e-08
-7.79846e-09
-2.40828e-09
6.15686e-11
-3.21633e-10
2.93031e-11
-3.44678e-10
2.02319e-12
-3.13951e-10
-1.2744e-11
-2.69706e-10
-2.14715e-11
-2.30588e-10
-2.60141e-11
-2.00741e-10
-2.79136e-11
-1.81122e-10
-2.87341e-11
-1.6942e-10
-2.90853e-11
-1.62625e-10
-2.92178e-11
-1.58682e-10
-2.92362e-11
-1.5636e-10
-2.91788e-11
-1.54922e-10
-2.90726e-11
-1.53947e-10
-2.89262e-11
-1.53182e-10
-2.8753e-11
-1.52491e-10
-2.85645e-11
-1.51798e-10
-2.83823e-11
-1.51078e-10
-2.82393e-11
-1.50342e-10
-2.81913e-11
-1.49652e-10
-2.83297e-11
-1.49133e-10
-2.88203e-11
-1.49018e-10
-3.00296e-11
-1.4973e-10
-3.29798e-11
-1.52111e-10
-4.0637e-11
-1.5787e-10
-5.93269e-11
-1.69476e-10
-5.52801e-11
-1.78942e-10
-9.68546e-11
-2.06854e-10
-1.19122e-10
-2.3061e-10
-3.37213e-10
-3.07304e-10
-8.3378e-10
-3.92263e-10
-6.63855e-09
-8.22745e-10
-1.49577e-08
-8.9851e-10
-1.00397e-08
2.74592e-09
-1.30483e-08
4.41743e-09
-1.75263e-08
5.60854e-09
-2.14826e-08
7.93756e-09
-2.28486e-08
1.14748e-08
-2.20692e-08
1.4451e-08
-6.51569e-08
1.30654e-08
-7.68835e-08
1.01695e-07
-7.92238e-08
-9.35836e-09
-7.69183e-08
-8.48239e-09
-7.47403e-08
-7.98699e-09
-7.28897e-08
-7.4931e-09
-7.16012e-08
-6.91045e-09
-7.06645e-08
-6.56729e-09
-6.98706e-08
-6.5431e-09
-6.91663e-08
-6.92673e-09
-6.87943e-08
-8.19174e-09
-2.58418e-09
6.18135e-11
-3.07883e-10
3.44123e-11
-3.33643e-10
6.93235e-12
-3.09998e-10
-9.339e-12
-2.70356e-10
-1.95852e-11
-2.34076e-10
-2.53888e-11
-2.05629e-10
-2.81282e-11
-1.86505e-10
-2.94372e-11
-1.74898e-10
-3.00681e-11
-1.68089e-10
-3.03605e-11
-1.64119e-10
-3.04692e-11
-1.61781e-10
-3.04636e-11
-1.60342e-10
-3.03881e-11
-1.5938e-10
-3.02625e-11
-1.58642e-10
-3.01064e-11
-1.57989e-10
-2.99354e-11
-1.57345e-10
-2.9774e-11
-1.56683e-10
-2.9658e-11
-1.56012e-10
-2.96457e-11
-1.55388e-10
-2.98327e-11
-1.5493e-10
-3.03928e-11
-1.54858e-10
-3.17093e-11
-1.55579e-10
-3.48274e-11
-1.57888e-10
-4.2641e-11
-1.63311e-10
-6.03122e-11
-1.73679e-10
-5.79179e-11
-1.81242e-10
-9.73848e-11
-2.0723e-10
-1.24111e-10
-2.2921e-10
-3.31747e-10
-3.00687e-10
-8.52308e-10
-3.83109e-10
-6.11676e-09
-7.74257e-10
-1.38606e-08
-7.60673e-10
-9.83945e-09
2.66205e-09
-1.25656e-08
4.40069e-09
-1.66647e-08
5.65105e-09
-2.02136e-08
7.92377e-09
-2.13457e-08
1.12557e-08
-2.04245e-08
1.40275e-08
-2.5345e-08
1.29246e-08
-6.02873e-08
7.94991e-09
-7.91368e-08
-6.73193e-09
-7.70208e-08
-9.02276e-09
-7.48369e-08
-8.53334e-09
-7.29628e-08
-8.01208e-09
-7.16792e-08
-7.37725e-09
-7.07621e-08
-7.00173e-09
-7e-08
-6.96382e-09
-6.93659e-08
-7.33617e-09
-6.9143e-08
-8.56484e-09
-2.75407e-09
6.1651e-11
-2.94759e-10
3.88332e-11
-3.22357e-10
1.15582e-11
-3.04837e-10
-5.92441e-12
-2.6947e-10
-1.74612e-11
-2.35798e-10
-2.43932e-11
-2.08726e-10
-2.79068e-11
-1.90113e-10
-2.96685e-11
-1.78605e-10
-3.05552e-11
-1.71774e-10
-3.09915e-11
-1.6777e-10
-3.11801e-11
-1.65407e-10
-3.1219e-11
-1.63959e-10
-3.11681e-11
-1.63003e-10
-3.10567e-11
-1.62284e-10
-3.091e-11
-1.6166e-10
-3.07475e-11
-1.61053e-10
-3.05964e-11
-1.60435e-10
-3.04954e-11
-1.59812e-10
-3.05067e-11
-1.59238e-10
-3.07321e-11
-1.58825e-10
-3.13562e-11
-1.58787e-10
-3.27831e-11
-1.59518e-10
-3.60814e-11
-1.61776e-10
-4.40534e-11
-1.6693e-10
-6.09018e-11
-1.76265e-10
-6.00725e-11
-1.82412e-10
-9.7746e-11
-2.0651e-10
-1.28277e-10
-2.26987e-10
-3.27509e-10
-2.93512e-10
-8.65013e-10
-3.73295e-10
-5.66656e-09
-7.2723e-10
-1.28816e-08
-6.382e-10
-9.62538e-09
2.58337e-09
-1.21142e-08
4.36876e-09
-1.58775e-08
5.66891e-09
-1.90788e-08
7.88415e-09
-2.00347e-08
1.10273e-08
-1.90964e-08
1.36164e-08
-2.33094e-08
1.28218e-08
-6.27987e-08
8.5803e-09
-7.92701e-08
-3.84888e-09
-7.71209e-08
-9.55637e-09
-7.49299e-08
-9.07055e-09
-7.30303e-08
-8.52401e-09
-7.17526e-08
-7.83521e-09
-7.08558e-08
-7.42665e-09
-7.01245e-08
-7.37437e-09
-6.95552e-08
-7.73267e-09
-6.94647e-08
-8.91979e-09
-2.91795e-09
6.12068e-11
-2.82206e-10
4.26704e-11
-3.10968e-10
1.59116e-11
-2.9874e-10
-2.53963e-12
-2.67354e-10
-1.51954e-11
-2.36125e-10
-2.3155e-11
-2.10418e-10
-2.73993e-11
-1.92348e-10
-2.95997e-11
-1.80968e-10
-3.07379e-11
-1.74134e-10
-3.13168e-11
-1.70103e-10
-3.15851e-11
-1.6772e-10
-3.16685e-11
-1.66267e-10
-3.16418e-11
-1.65317e-10
-3.15442e-11
-1.64614e-10
-3.14059e-11
-1.64016e-10
-3.12504e-11
-1.63443e-10
-3.11073e-11
-1.62864e-10
-3.10186e-11
-1.62284e-10
-3.105e-11
-1.61754e-10
-3.13097e-11
-1.61381e-10
-3.19932e-11
-1.61372e-10
-3.35237e-11
-1.62109e-10
-3.69856e-11
-1.64315e-10
-4.50749e-11
-1.69215e-10
-6.12096e-11
-1.77636e-10
-6.18175e-11
-1.82683e-10
-9.79456e-11
-2.04951e-10
-1.31722e-10
-2.24107e-10
-3.24045e-10
-2.85977e-10
-8.72757e-10
-3.62966e-10
-5.27308e-09
-6.8178e-10
-1.20048e-08
-5.29518e-10
-9.40224e-09
2.50887e-09
-1.16912e-08
4.32446e-09
-1.51567e-08
5.66555e-09
-1.80594e-08
7.82303e-09
-1.88806e-08
1.07926e-08
-1.79605e-08
1.3218e-08
-2.09242e-08
1.26639e-08
-6.22562e-08
9.5325e-09
-7.97079e-08
-6.17036e-10
-7.72227e-08
-1.01091e-08
-7.50197e-08
-9.5992e-09
-7.30923e-08
-9.02918e-09
-7.18213e-08
-8.28442e-09
-7.09458e-08
-7.84218e-09
-7.0244e-08
-7.77508e-09
-6.97344e-08
-8.11702e-09
-6.97615e-08
-9.25839e-09
-3.07592e-09
6.05707e-11
-2.70176e-10
4.60062e-11
-2.99592e-10
2.00004e-11
-2.91927e-10
7.897e-13
-2.64248e-10
-1.28438e-11
-2.35328e-10
-2.17413e-11
-2.10968e-10
-2.66767e-11
-1.93471e-10
-2.93045e-11
-1.8225e-10
-3.06926e-11
-1.75435e-10
-3.14148e-11
-1.7139e-10
-3.17639e-11
-1.68994e-10
-3.18927e-11
-1.67538e-10
-3.18909e-11
-1.66595e-10
-3.18075e-11
-1.65909e-10
-3.16777e-11
-1.65336e-10
-3.15289e-11
-1.64795e-10
-3.13933e-11
-1.64253e-10
-3.13157e-11
-1.63714e-10
-3.13655e-11
-1.63224e-10
-3.16569e-11
-1.62887e-10
-3.23956e-11
-1.62904e-10
-3.40214e-11
-1.63644e-10
-3.76269e-11
-1.65792e-10
-4.5792e-11
-1.70442e-10
-6.12932e-11
-1.78045e-10
-6.32081e-11
-1.82218e-10
-9.79933e-11
-2.02739e-10
-1.3454e-10
-2.20704e-10
-3.21063e-10
-2.78225e-10
-8.76287e-10
-3.52246e-10
-4.92566e-09
-6.38056e-10
-1.12168e-08
-4.33195e-10
-9.17378e-09
2.43775e-09
-1.12941e-08
4.27009e-09
-1.44951e-08
5.64396e-09
-1.714e-08
7.74403e-09
-1.78567e-08
1.05542e-08
-1.6977e-08
1.28322e-08
-1.91173e-08
1.24668e-08
-5.92174e-08
1.03256e-08
-7.49771e-08
7.81382e-08
-7.72841e-08
-1.02509e-08
-7.51062e-08
-1.01163e-08
-7.31488e-08
-9.52784e-09
-7.18855e-08
-8.72498e-09
-7.10321e-08
-8.24844e-09
-7.03585e-08
-8.16629e-09
-6.99037e-08
-8.48991e-09
-7.00354e-08
-9.58219e-09
-3.22817e-09
5.98072e-11
-2.58631e-10
4.89075e-11
-2.88313e-10
2.38317e-11
-2.84581e-10
4.04463e-12
-2.60344e-10
-1.04447e-11
-2.33617e-10
-2.01974e-11
-2.10577e-10
-2.57856e-11
-1.93672e-10
-2.88292e-11
-1.82641e-10
-3.04652e-11
-1.75865e-10
-3.13313e-11
-1.7182e-10
-3.17624e-11
-1.69419e-10
-3.19375e-11
-1.67963e-10
-3.19614e-11
-1.67029e-10
-3.18926e-11
-1.66361e-10
-3.17717e-11
-1.65812e-10
-3.16296e-11
-1.65301e-10
-3.15013e-11
-1.64794e-10
-3.14341e-11
-1.64293e-10
-3.15012e-11
-1.63842e-10
-3.1822e-11
-1.6354e-10
-3.26118e-11
-1.6358e-10
-3.43245e-11
-1.64319e-10
-3.80543e-11
-1.66404e-10
-4.62599e-11
-1.70806e-10
-6.11922e-11
-1.77673e-10
-6.42895e-11
-1.81142e-10
-9.7901e-11
-2.00012e-10
-1.3681e-10
-2.16884e-10
-3.18365e-10
-2.70357e-10
-8.76253e-10
-3.41249e-10
-4.61633e-09
-5.96198e-10
-1.05062e-08
-3.47929e-10
-8.943e-09
2.36941e-09
-1.09206e-08
4.20753e-09
-1.38866e-08
5.60674e-09
-1.63078e-08
7.65016e-09
-1.69426e-08
1.03136e-08
-1.61141e-08
1.24588e-08
-1.76838e-08
1.22424e-08
-2.5855e-08
1.03929e-08
-5.82877e-08
6.31612e-09
-7.72596e-08
-8.06188e-09
-7.51892e-08
-1.06154e-08
-7.31998e-08
-1.00202e-08
-7.19453e-08
-9.15695e-09
-7.11148e-08
-8.64557e-09
-7.04681e-08
-8.54829e-09
-7.00635e-08
-8.85203e-09
-7.02879e-08
-9.89259e-09
-3.37494e-09
5.89631e-11
-2.47539e-10
5.14304e-11
-2.77196e-10
2.74137e-11
-2.7685e-10
7.21091e-12
-2.558e-10
-8.0265e-12
-2.31159e-10
-1.85574e-11
-2.09405e-10
-2.47608e-11
-1.93105e-10
-2.8208e-11
-1.82289e-10
-3.00892e-11
-1.75573e-10
-3.10994e-11
-1.71539e-10
-3.16132e-11
-1.6914e-10
-3.18354e-11
-1.67689e-10
-3.18857e-11
-1.66766e-10
-3.1832e-11
-1.66114e-10
-3.17202e-11
-1.65589e-10
-3.1585e-11
-1.65107e-10
-3.14638e-11
-1.64633e-10
-3.14065e-11
-1.64169e-10
-3.14897e-11
-1.63754e-10
-3.18379e-11
-1.63485e-10
-3.26749e-11
-1.63547e-10
-3.44663e-11
-1.64282e-10
-3.83025e-11
-1.66299e-10
-4.65193e-11
-1.70456e-10
-6.09376e-11
-1.7666e-10
-6.51003e-11
-1.79554e-10
-9.76812e-11
-1.96876e-10
-1.386e-10
-2.12736e-10
-3.15821e-10
-2.62447e-10
-8.73228e-10
-3.30073e-10
-4.33903e-09
-5.56314e-10
-9.8633e-09
-2.72551e-10
-8.71223e-09
2.30338e-09
-1.05687e-08
4.13836e-09
-1.33256e-08
5.55618e-09
-1.55518e-08
7.54396e-09
-1.61218e-08
1.00722e-08
-1.53487e-08
1.20972e-08
-1.65339e-08
1.2001e-08
-2.28958e-08
1.0439e-08
-5.8988e-08
6.34309e-09
-7.73827e-08
-5.50768e-09
-7.52701e-08
-1.11089e-08
-7.32455e-08
-1.05067e-08
-7.20006e-08
-9.58044e-09
-7.1194e-08
-9.03368e-09
-7.0573e-08
-8.92141e-09
-7.02141e-08
-9.204e-09
-7.05207e-08
-1.01908e-08
-3.5165e-09
5.80721e-11
-2.36874e-10
5.36224e-11
-2.66291e-10
3.07558e-11
-2.68853e-10
1.02781e-11
-2.50745e-10
-5.61032e-12
-2.28087e-10
-1.68479e-11
-2.07579e-10
-2.363e-11
-1.91893e-10
-2.7468e-11
-1.81313e-10
-2.9591e-11
-1.74675e-10
-3.07448e-11
-1.70664e-10
-3.13418e-11
-1.68274e-10
-3.16117e-11
-1.66831e-10
-3.16888e-11
-1.65919e-10
-3.16506e-11
-1.65285e-10
-3.15482e-11
-1.64783e-10
-3.14199e-11
-1.64329e-10
-3.13056e-11
-1.63887e-10
-3.12579e-11
-1.63457e-10
-3.13561e-11
-1.63077e-10
-3.17297e-11
-1.62839e-10
-3.26102e-11
-1.6292e-10
-3.44725e-11
-1.63648e-10
-3.83987e-11
-1.65595e-10
-4.6603e-11
-1.69513e-10
-6.05548e-11
-1.75118e-10
-6.5674e-11
-1.77538e-10
-9.73462e-11
-1.93417e-10
-1.39972e-10
-2.08328e-10
-3.13341e-10
-2.54546e-10
-8.67715e-10
-3.18804e-10
-4.089e-09
-5.18471e-10
-9.27982e-09
-2.0601e-10
-8.48333e-09
2.2393e-09
-1.0237e-08
4.06388e-09
-1.28074e-08
5.49423e-09
-1.48631e-08
7.42757e-09
-1.53813e-08
9.83101e-09
-1.46638e-08
1.17468e-08
-1.55618e-08
1.17479e-08
-2.03671e-08
1.04165e-08
-5.78919e-08
7.1227e-09
-7.77413e-08
-2.60898e-09
-7.53521e-08
-1.16156e-08
-7.32857e-08
-1.09878e-08
-7.20515e-08
-9.99552e-09
-7.12698e-08
-9.41289e-09
-7.06733e-08
-9.28593e-09
-7.03558e-08
-9.54641e-09
-7.07352e-08
-1.04779e-08
-3.65314e-09
5.71588e-11
-2.26615e-10
5.55247e-11
-2.55634e-10
3.38686e-11
-2.60688e-10
1.32389e-11
-2.45287e-10
-3.21235e-12
-2.24513e-10
-1.50904e-11
-2.05208e-10
-2.24161e-11
-1.90137e-10
-2.66312e-11
-1.79813e-10
-2.89918e-11
-1.73269e-10
-3.02883e-11
-1.69292e-10
-3.09686e-11
-1.66915e-10
-3.12864e-11
-1.65483e-10
-3.13908e-11
-1.64585e-10
-3.13683e-11
-1.63968e-10
-3.12755e-11
-1.63488e-10
-3.11542e-11
-1.6306e-10
-3.10468e-11
-1.62649e-10
-3.1008e-11
-1.62252e-10
-3.11203e-11
-1.61905e-10
-3.15175e-11
-1.61695e-10
-3.24378e-11
-1.61794e-10
-3.43637e-11
-1.62513e-10
-3.83652e-11
-1.64388e-10
-4.65379e-11
-1.68072e-10
-6.00646e-11
-1.73135e-10
-6.60399e-11
-1.7516e-10
-9.69078e-11
-1.897e-10
-1.40976e-10
-2.0372e-10
-3.10863e-10
-2.46695e-10
-8.60154e-10
-3.0752e-10
-3.86244e-09
-4.82703e-10
-8.74877e-09
-1.47366e-10
-8.25771e-09
2.17691e-09
-9.92373e-09
3.98516e-09
-1.2328e-08
5.42263e-09
-1.42338e-08
7.30281e-09
-1.47101e-08
9.59086e-09
-1.40466e-08
1.14071e-08
-1.4728e-08
1.14871e-08
-1.85197e-08
1.03447e-08
-5.63844e-08
7.89931e-09
-7.65368e-08
2.88811e-08
-7.54237e-08
-1.20139e-08
-7.33204e-08
-1.14632e-08
-7.20981e-08
-1.04023e-08
-7.13424e-08
-9.78332e-09
-7.0769e-08
-9.64214e-09
-7.04889e-08
-9.87979e-09
-7.09324e-08
-1.07549e-08
-3.7852e-09
5.62408e-11
-2.16746e-10
5.71728e-11
-2.4525e-10
3.67637e-11
-2.52434e-10
1.60887e-11
-2.39517e-10
-8.44962e-13
-2.20527e-10
-1.33024e-11
-2.02381e-10
-2.11378e-11
-1.87924e-10
-2.57162e-11
-1.7787e-10
-2.83094e-11
-1.71434e-10
-2.97471e-11
-1.675e-10
-3.05104e-11
-1.65142e-10
-3.08764e-11
-1.63724e-10
-3.10082e-11
-1.6284e-10
-3.10017e-11
-1.62241e-10
-3.09186e-11
-1.61782e-10
-3.08042e-11
-1.6138e-10
-3.07035e-11
-1.60998e-10
-3.06732e-11
-1.60632e-10
-3.07986e-11
-1.60315e-10
-3.12176e-11
-1.60132e-10
-3.21743e-11
-1.60246e-10
-3.41569e-11
-1.60956e-10
-3.82204e-11
-1.62756e-10
-4.63464e-11
-1.66216e-10
-5.94848e-11
-1.70788e-10
-6.62241e-11
-1.72479e-10
-9.63772e-11
-1.8578e-10
-1.41658e-10
-1.9896e-10
-3.08349e-10
-2.38921e-10
-8.50929e-10
-2.96284e-10
-3.65629e-09
-4.49007e-10
-8.26413e-09
-9.5779e-11
-8.03646e-09
2.11598e-09
-9.62773e-09
3.90311e-09
-1.18835e-08
5.34288e-09
-1.36572e-08
7.1712e-09
-1.40996e-08
9.35233e-09
-1.34873e-08
1.10775e-08
-1.40024e-08
1.12215e-08
-1.70672e-08
1.0236e-08
-3.42475e-08
8.28444e-09
-6.15971e-08
1.27623e-08
-7.54252e-08
-1.08898e-08
-7.33491e-08
-1.1928e-08
-7.21406e-08
-1.08007e-08
-7.14118e-08
-1.01451e-08
-7.08604e-08
-9.99031e-09
-7.06138e-08
-1.02047e-08
-7.11137e-08
-1.10227e-08
-3.913e-09
5.53305e-11
-2.0725e-10
5.85979e-11
-2.35158e-10
3.94532e-11
-2.44155e-10
1.8825e-11
-2.3351e-10
1.48245e-12
-2.16208e-10
-1.14979e-11
-1.99174e-10
-1.98108e-11
-1.85327e-10
-2.47381e-11
-1.75555e-10
-2.75586e-11
-1.69238e-10
-2.91356e-11
-1.65355e-10
-2.99814e-11
-1.63022e-10
-3.03954e-11
-1.61619e-10
-3.05548e-11
-1.6075e-10
-3.05643e-11
-1.60169e-10
-3.0491e-11
-1.5973e-10
-3.03837e-11
-1.59352e-10
-3.02894e-11
-1.58997e-10
-3.02672e-11
-1.5866e-10
-3.04048e-11
-1.58373e-10
-3.08438e-11
-1.58215e-10
-3.18337e-11
-1.58343e-10
-3.38665e-11
-1.5904e-10
-3.79801e-11
-1.60767e-10
-4.60476e-11
-1.6401e-10
-5.88302e-11
-1.68137e-10
-6.62493e-11
-1.69544e-10
-9.57646e-11
-1.81702e-10
-1.42058e-10
-1.94086e-10
-3.05775e-10
-2.31245e-10
-8.40371e-10
-2.85152e-10
-3.468e-09
-4.17351e-10
-7.82073e-09
-5.04982e-11
-7.82041e-09
2.05639e-09
-9.34778e-09
3.8185e-09
-1.14708e-08
5.25627e-09
-1.31276e-08
7.03407e-09
-1.35422e-08
9.11587e-09
-1.29779e-08
1.07573e-08
-1.33635e-08
1.09533e-08
-1.58943e-08
1.01001e-08
-2.45653e-08
8.43522e-09
-5.61462e-08
5.08585e-09
-7.54468e-08
-8.78477e-09
-7.33718e-08
-1.23844e-08
-7.21788e-08
-1.11909e-08
-7.14782e-08
-1.04983e-08
-7.09476e-08
-1.03307e-08
-7.0731e-08
-1.05215e-08
-7.128e-08
-1.1282e-08
-4.03689e-09
5.44368e-11
-1.98115e-10
5.98272e-11
-2.25369e-10
4.19495e-11
-2.35901e-10
2.14473e-11
-2.2733e-10