/*--------------------------------*- C++ -*----------------------------------*\
| =========                 |                                                 |
| \\      /  F ield         | OpenFOAM: The Open Source CFD Toolbox           |
|  \\    /   O peration     | Version:  v1912                                 |
|   \\  /    A nd           | Website:  www.openfoam.com                      |
|    \\/     M anipulation  |                                                 |
\*---------------------------------------------------------------------------*/
FoamFile
{
    version     2.0;
    format      ascii;
    class       volVectorField;
    location    "31536000";
    object      Uvol;
}
// * * * * * * * * * * * * * * * * * * * * * * * * * * * * * * * * * * * * * //

dimensions      [0 1 -1 0 0 0 0];


internalField   nonuniform List<vector> 
4250
(
(4.13731e-14 -0 -3.23023e-14)
(5.90631e-14 -9.34001e-28 2.08013e-13)
(-2.24574e-14 -0 2.44824e-15)
(3.90775e-15 1.87108e-27 -1.72086e-14)
(7.24662e-15 -0 -2.59496e-14)
(6.42899e-15 -0 -3.00393e-14)
(6.1226e-15 -0 -3.1572e-14)
(6.01414e-15 -0 -3.21146e-14)
(5.98612e-15 -0 -3.22549e-14)
(5.98485e-15 -0 -3.22612e-14)
(5.98648e-15 -0 -3.22531e-14)
(5.98677e-15 -0 -3.22516e-14)
(5.98677e-15 -0 -3.22516e-14)
(5.98678e-15 -0 -3.22516e-14)
(5.98683e-15 -9.35489e-28 -3.22513e-14)
(5.98685e-15 -1.87104e-27 -3.22512e-14)
(5.98719e-15 -0 -3.22495e-14)
(5.98839e-15 -1.87104e-27 -3.22435e-14)
(5.98704e-15 -0 -3.22503e-14)
(5.98681e-15 -9.35489e-28 -3.22514e-14)
(5.98679e-15 1.87104e-27 -3.22515e-14)
(5.98679e-15 1.87104e-27 -3.22515e-14)
(5.98673e-15 6.49083e-32 -3.22518e-14)
(5.98623e-15 -9.35489e-28 -3.22543e-14)
(5.98363e-15 6.48746e-32 -3.22673e-14)
(5.98173e-15 -1.87104e-27 -3.22768e-14)
(5.98173e-15 -9.35489e-28 -3.22768e-14)
(5.96598e-15 -1.87104e-27 -3.22768e-14)
(4.14328e-15 9.3549e-28 -3.28762e-14)
(-6.43813e-12 1.80138e-27 -3.22513e-11)
(-2.43692e-11 1.87107e-27 -3.94236e-14)
(-2.29104e-06 -6.83563e-25 2.21875e-07)
(-5.43381e-10 6.03254e-25 2.79219e-09)
(-1.44178e-08 -0 1.73781e-09)
(-2.87867e-08 -9.62717e-25 3.03311e-09)
(-4.64979e-08 -1.10611e-24 4.84094e-09)
(-8.32345e-08 -0 8.42097e-09)
(-1.64398e-07 -3.46563e-24 7.68107e-09)
(-9.74246e-08 1.5483e-23 -4.72291e-10)
(-8.73766e-08 2.24387e-23 -1.04044e-09)
(-8.28241e-08 -0 -1.37593e-09)
(-7.97847e-08 -0 -1.61895e-09)
(-7.74787e-08 -0 -1.81951e-09)
(-7.56058e-08 -0 -1.98113e-09)
(-7.41233e-08 -0 -2.10549e-09)
(-7.29251e-08 -0 -2.21245e-09)
(-7.17601e-08 -0 -2.33278e-09)
(-7.01428e-08 -0 -2.53147e-09)
(-6.6191e-08 -0 -3.09665e-09)
(-1.8538e-08 -0 -7.41078e-09)
(4.91075e-14 -0 -1.29656e-13)
(1.46667e-13 -1.49312e-30 6.26796e-13)
(-4.18317e-14 -0 3.29212e-14)
(-1.55783e-15 7.30006e-32 -2.85089e-14)
(1.00512e-15 -0 -4.99134e-14)
(2.25421e-16 -0 -5.78832e-14)
(4.08589e-17 -0 -6.08092e-14)
(-9.50608e-18 -0 -6.18475e-14)
(-3.38204e-18 -0 -6.21196e-14)
(1.02441e-17 -0 -6.21352e-14)
(1.40317e-17 -0 -6.21207e-14)
(1.36805e-17 -0 -6.21179e-14)
(1.35371e-17 -0 -6.21178e-14)
(1.35774e-17 -0 -6.21177e-14)
(1.3687e-17 -0 -6.21172e-14)
(1.38811e-17 -1.48305e-34 -6.21171e-14)
(1.51523e-17 -0 -6.2114e-14)
(1.6441e-17 -1.79172e-34 -6.21028e-14)
(1.31856e-17 -0 -6.2115e-14)
(1.34917e-17 -0 -6.21173e-14)
(1.35859e-17 1.47411e-34 -6.21175e-14)
(1.35618e-17 1.4739e-34 -6.21175e-14)
(1.31669e-17 1.46182e-34 -6.2118e-14)
(1.0783e-17 -0 -6.21228e-14)
(4.8351e-18 7.99837e-35 -6.21486e-14)
(2.23776e-18 -9.52551e-28 -6.21689e-14)
(2.36337e-18 1.9051e-27 -6.21736e-14)
(-8.10181e-17 9.52551e-28 -6.21737e-14)
(-3.63727e-12 9.52554e-28 -6.36543e-14)
(-3.47916e-11 -1.32414e-27 -1.74044e-10)
(-2.41782e-11 -4.01436e-29 -1.85752e-11)
(-4.14459e-07 3.91135e-25 7.7445e-08)
(-1.69171e-08 -0 7.48668e-09)
(-1.35869e-08 -0 4.06215e-09)
(-2.6324e-08 -0 6.78296e-09)
(-4.1476e-08 -1.04e-25 1.1118e-08)
(-6.66051e-08 -0 1.92948e-08)
(-1.62724e-07 1.07918e-24 3.46856e-08)
(-9.51191e-08 -7.37158e-24 1.59761e-08)
(-8.42266e-08 -1.03697e-24 1.52196e-08)
(-7.96828e-08 -0 1.46571e-08)
(-7.66661e-08 -0 1.42241e-08)
(-7.43863e-08 -0 1.3847e-08)
(-7.2533e-08 -0 1.35442e-08)
(-7.10652e-08 -0 1.33154e-08)
(-6.98858e-08 -0 1.31122e-08)
(-6.8756e-08 -0 1.28679e-08)
(-6.72345e-08 -0 1.2441e-08)
(-6.38783e-08 -0 1.12201e-08)
(-1.72805e-08 -0 2.99585e-09)
(-1.99253e-11 -7.53124e-28 -1.0029e-10)
(-5.58038e-15 9.62072e-28 -2.03929e-13)
(-7.23255e-14 -0 1.20071e-13)
(-3.62865e-15 1.15959e-31 -8.68452e-15)
(-9.63335e-16 -0 -5.05871e-14)
(-5.41246e-16 -0 -5.87947e-14)
(-2.24117e-16 -0 -6.10876e-14)
(-9.11179e-17 -0 -6.19079e-14)
(-2.1297e-17 -0 -6.2131e-14)
(7.02226e-18 -0 -6.21498e-14)
(1.0978e-17 -0 -6.21402e-14)
(9.81218e-18 -0 -6.2138e-14)
(9.53489e-18 -0 -6.21378e-14)
(9.59793e-18 -0 -6.21378e-14)
(9.69107e-18 -0 -6.21373e-14)
(9.99793e-18 -1.04531e-34 -6.21372e-14)
(1.16341e-17 -0 -6.21352e-14)
(1.15928e-17 -1.26927e-34 -6.21269e-14)
(8.4219e-18 -0 -6.21352e-14)
(9.42246e-18 -0 -6.2137e-14)
(9.64351e-18 1.04789e-34 -6.21371e-14)
(9.59001e-18 1.04663e-34 -6.21372e-14)
(8.94898e-18 1.03446e-34 -6.21377e-14)
(5.31821e-18 -0 -6.21418e-14)
(-1.19951e-18 -1.93971e-27 -6.21656e-14)
(-1.90028e-18 9.69857e-28 -6.2181e-14)
(-5.29036e-19 -2.90957e-27 -6.21855e-14)
(-1.8101e-16 -9.69857e-28 -6.21855e-14)
(-1.28998e-11 -9.6987e-28 -6.29269e-14)
(-1.56248e-10 -2.70217e-27 -7.13726e-10)
(-5.30203e-11 -4.26293e-28 -1.96671e-10)
(-1.53237e-07 -1.59659e-25 2.25867e-08)
(-2.88254e-08 -0 9.95192e-09)
(-1.34045e-08 -0 4.76896e-09)
(-2.46866e-08 -0 7.26145e-09)
(-3.80382e-08 -9.84808e-26 1.17369e-08)
(-5.69121e-08 -0 1.96416e-08)
(-1.66685e-07 1.08715e-24 3.83583e-08)
(-9.6676e-08 5.41338e-24 1.41462e-08)
(-8.44758e-08 -1.03477e-24 1.42037e-08)
(-7.98879e-08 -0 1.38628e-08)
(-7.68442e-08 -0 1.3537e-08)
(-7.45493e-08 -0 1.32081e-08)
(-7.26799e-08 -0 1.29458e-08)
(-7.11991e-08 -0 1.27572e-08)
(-7.00175e-08 -0 1.25761e-08)
(-6.89034e-08 -0 1.23261e-08)
(-6.74514e-08 -0 1.18463e-08)
(-6.45343e-08 -0 1.04704e-08)
(-1.80469e-08 -0 2.99659e-09)
(-6.96888e-11 3.398e-27 -5.91525e-10)
(1.06615e-11 -0 -1.1412e-12)
(2.85704e-14 -0 2.81462e-13)
(-4.01187e-15 2.49004e-31 5.26957e-14)
(-3.5333e-15 -0 -4.51663e-14)
(-1.54661e-15 -0 -6.09774e-14)
(-4.83676e-16 -0 -6.17195e-14)
(-1.65767e-16 -0 -6.2055e-14)
(-3.8215e-17 -0 -6.21608e-14)
(1.27371e-18 -0 -6.2175e-14)
(4.77538e-18 -0 -6.21734e-14)
(3.01468e-18 -0 -6.21725e-14)
(2.65285e-18 -0 -6.21723e-14)
(2.73081e-18 -0 -6.21722e-14)
(2.78794e-18 -0 -6.2172e-14)
(3.14879e-18 -2.94057e-35 -6.21719e-14)
(4.81275e-18 -0 -6.21714e-14)
(3.27168e-18 9.87476e-28 -6.21686e-14)
(9.95402e-19 -0 -6.21704e-14)
(2.53723e-18 -0 -6.2171e-14)
(2.84975e-18 -1.97495e-27 -6.2171e-14)
(2.74635e-18 -9.87477e-28 -6.21712e-14)
(1.88613e-18 2.93558e-35 -6.21719e-14)
(-2.69643e-18 9.87477e-28 -6.21748e-14)
(-7.99629e-18 9.87477e-28 -6.21912e-14)
(-4.17689e-18 9.96281e-36 -6.21901e-14)
(-5.57527e-19 -9.87477e-28 -6.21857e-14)
(-1.77339e-16 9.87477e-28 -6.22437e-14)
(-1.55314e-11 -9.87477e-28 -6.68286e-14)
(-3.09262e-10 5.25657e-27 -4.60213e-10)
(-8.40409e-10 -7.23096e-27 -3.336e-09)
(-3.29845e-08 1.60309e-25 6.63202e-09)
(-3.24441e-08 -0 1.05599e-08)
(-1.33625e-08 -7.72581e-25 5.38282e-09)
(-2.32223e-08 -0 7.65545e-09)
(-3.50149e-08 1.0739e-24 1.21521e-08)
(-4.97185e-08 -1.02577e-24 2.01976e-08)
(-1.6335e-07 1.18618e-24 8.40269e-08)
(-9.84442e-08 -5.51173e-24 1.26041e-08)
(-8.46638e-08 -9.18481e-24 1.31917e-08)
(-8.00725e-08 -0 1.30757e-08)
(-7.70112e-08 -0 1.28589e-08)
(-7.47051e-08 -0 1.25779e-08)
(-7.28203e-08 -0 1.23556e-08)
(-7.13274e-08 -0 1.22075e-08)
(-7.01457e-08 -0 1.20499e-08)
(-6.90502e-08 -0 1.17977e-08)
(-6.76713e-08 -0 1.12761e-08)
(-6.51362e-08 -0 9.79233e-09)
(-1.87664e-08 -0 2.96496e-09)
(3.94537e-11 -3.55993e-27 -4.91006e-10)
(1.20527e-12 -8.6245e-28 -6.6612e-11)
(-3.76785e-14 -0 -3.5241e-13)
(-9.16822e-15 4.37124e-31 1.39506e-13)
(-5.09182e-15 -0 -1.01243e-14)
(-3.38349e-15 -0 -6.41104e-14)
(-5.9014e-16 -0 -6.23315e-14)
(-2.04446e-16 -0 -6.22351e-14)
(-4.91086e-17 -0 -6.2205e-14)
(-5.58087e-18 -0 -6.2206e-14)
(-3.36678e-18 -0 -6.22133e-14)
(-5.34014e-18 -0 -6.22143e-14)
(-5.70015e-18 -0 -6.22142e-14)
(-5.62056e-18 -0 -6.2214e-14)
(-5.61431e-18 -1.00542e-27 -6.22141e-14)
(-5.27884e-18 1.00542e-27 -6.22139e-14)
(-4.00471e-18 -0 -6.22152e-14)
(-6.8752e-18 -1.00542e-27 -6.22197e-14)
(-7.53464e-18 -0 -6.22137e-14)
(-5.77122e-18 -0 -6.22126e-14)
(-5.45192e-18 5.86503e-35 -6.22125e-14)
(-5.63741e-18 -0 -6.22128e-14)
(-6.66456e-18 -6.16043e-35 -6.22138e-14)
(-1.14525e-17 -6.45525e-35 -6.22152e-14)
(-1.23748e-17 1.00542e-27 -6.22132e-14)
(-3.15727e-18 2.01084e-27 -6.21901e-14)
(-5.06228e-17 1.00542e-27 -6.24073e-14)
(-6.40352e-15 -1.00536e-27 -9.08181e-14)
(-1.88167e-11 2.15341e-29 -9.99304e-12)
(-4.34756e-10 -0 -3.74499e-10)
(-6.00848e-10 -1.23885e-26 -1.36504e-09)
(-2.20652e-08 4.25446e-27 1.68672e-09)
(-3.04786e-08 5.70914e-25 1.01339e-08)
(-1.33237e-08 7.42291e-25 5.87369e-09)
(-2.19093e-08 -1.00763e-24 7.97435e-09)
(-3.23389e-08 -0 1.24112e-08)
(-4.35859e-08 9.16459e-25 2.02932e-08)
(-7.29413e-08 1.10369e-25 4.71908e-08)
(-1.04455e-07 -0 1.32482e-08)
(-8.48234e-08 -0 1.22122e-08)
(-8.02371e-08 -0 1.2297e-08)
(-7.71673e-08 -0 1.21904e-08)
(-7.48539e-08 -0 1.19566e-08)
(-7.29543e-08 -0 1.17734e-08)
(-7.14503e-08 -0 1.16663e-08)
(-7.02702e-08 -0 1.15336e-08)
(-6.91956e-08 -0 1.12825e-08)
(-6.78911e-08 -0 1.07294e-08)
(-6.56902e-08 -0 9.17514e-09)
(-1.94409e-08 -0 2.90968e-09)
(5.70079e-11 6.1791e-27 -4.8164e-10)
(-1.50785e-11 5.7596e-28 -2.65759e-10)
(2.08216e-12 -0 -2.44911e-11)
(-2.37737e-14 -3.52254e-31 -2.24448e-13)
(-3.1169e-15 -0 6.46425e-14)
(-7.29591e-15 -0 -6.22087e-14)
(-1.31549e-16 -0 -6.09469e-14)
(-2.05487e-16 -0 -6.23204e-14)
(-5.05663e-17 -0 -6.22379e-14)
(-9.91815e-18 -0 -6.22266e-14)
(-9.31003e-18 -0 -6.22394e-14)
(-1.0977e-17 -0 -6.2242e-14)
(-1.12455e-17 -0 -6.2242e-14)
(-1.11904e-17 -0 -6.22419e-14)
(-1.12366e-17 1.23035e-34 -6.22422e-14)
(-1.10137e-17 -1.02368e-27 -6.22421e-14)
(-1.0416e-17 -0 -6.22445e-14)
(-1.37471e-17 1.02368e-27 -6.22545e-14)
(-1.28471e-17 -0 -6.22434e-14)
(-1.13541e-17 -0 -6.22411e-14)
(-1.11458e-17 1.2025e-34 -6.22409e-14)
(-1.14044e-17 -0 -6.22412e-14)
(-1.24074e-17 -1.22888e-34 -6.22421e-14)
(-1.59982e-17 -1.21757e-34 -6.22416e-14)
(-8.4428e-18 -4.58112e-35 -6.22066e-14)
(-2.50921e-17 -2.04737e-27 -6.21929e-14)
(-3.16112e-15 1.6738e-33 -6.29575e-14)
(-1.05832e-11 1.03433e-28 -4.77621e-11)
(-3.74463e-11 1.9242e-28 -8.88073e-11)
(-5.43925e-10 -6.84646e-27 -3.3936e-10)
(-7.30787e-10 -1.35468e-26 -1.22536e-09)
(-1.69518e-08 -1.49914e-25 8.40193e-10)
(-2.80798e-08 2.66221e-26 9.4335e-09)
(-1.32329e-08 7.63738e-25 6.24365e-09)
(-2.07262e-08 1.96681e-24 8.226e-09)
(-2.99747e-08 -0 1.25526e-08)
(-3.90886e-08 -0 1.99086e-08)
(-5.24047e-08 -0 2.67329e-08)
(-1.07786e-07 -0 1.62921e-08)
(-8.51432e-08 6.37352e-24 1.12912e-08)
(-8.03844e-08 -0 1.15285e-08)
(-7.73127e-08 -0 1.15321e-08)
(-7.49961e-08 -0 1.13441e-08)
(-7.30823e-08 -0 1.11992e-08)
(-7.15676e-08 -0 1.11338e-08)
(-7.03909e-08 -0 1.10273e-08)
(-6.93389e-08 -0 1.07802e-08)
(-6.81088e-08 -0 1.02049e-08)
(-6.62015e-08 -0 8.6099e-09)
(-2.00727e-08 -0 2.83734e-09)
(4.34973e-11 -0 -4.57667e-10)
(1.12498e-12 8.69907e-28 -4.0151e-10)
(-6.32247e-12 -0 -1.09674e-10)
(4.91413e-13 -2.16013e-29 -1.0024e-11)
(-1.51108e-14 -0 -1.42948e-13)
(-9.29164e-15 -0 -2.84836e-14)
(5.08079e-16 -0 -5.67994e-14)
(-3.85218e-16 -0 -6.24754e-14)
(-4.27896e-17 -0 -6.22225e-14)
(-8.38468e-18 -0 -6.22192e-14)
(-8.46749e-18 -0 -6.22308e-14)
(-9.45722e-18 -0 -6.22336e-14)
(-9.63203e-18 -0 -6.22339e-14)
(-9.65244e-18 -0 -6.22341e-14)
(-9.75689e-18 1.06766e-34 -6.22347e-14)
(-9.71702e-18 1.04228e-27 -6.22349e-14)
(-9.72894e-18 -0 -6.22374e-14)
(-1.2267e-17 -0 -6.22473e-14)
(-1.09289e-17 -0 -6.22377e-14)
(-1.01255e-17 -1.04228e-27 -6.22357e-14)
(-1.00889e-17 1.04228e-27 -6.22356e-14)
(-1.02699e-17 -0 -6.22354e-14)
(-1.07521e-17 -1.05511e-34 -6.22341e-14)
(-1.00367e-17 -8.90898e-35 -6.22265e-14)
(-2.67614e-17 -2.7126e-34 -6.23106e-14)
(-2.95608e-15 1.04228e-27 -7.65657e-14)
(-4.92386e-12 1.04229e-27 -9.14041e-14)
(-4.50464e-11 1.65258e-27 -1.52885e-10)
(-9.69486e-11 6.44705e-28 -2.97493e-10)
(-4.60142e-10 1.68111e-26 -3.36163e-10)
(-8.4573e-10 1.98066e-26 -1.09391e-09)
(-1.407e-08 -1.52315e-25 5.21174e-10)
(-2.57223e-08 -5.14454e-25 8.76329e-09)
(-1.30915e-08 2.61282e-26 6.51043e-09)
(-1.96547e-08 4.34378e-26 8.41768e-09)
(-2.78794e-08 -0 1.26055e-08)
(-3.544e-08 -1.2032e-24 1.94214e-08)
(-4.32274e-08 8.2136e-25 2.38909e-08)
(-1.11246e-07 -0 2.02651e-08)
(-8.56761e-08 -1.02656e-24 1.04176e-08)
(-8.05173e-08 -9.2186e-24 1.07713e-08)
(-7.74478e-08 -0 1.08844e-08)
(-7.51318e-08 -0 1.07404e-08)
(-7.32044e-08 -0 1.06329e-08)
(-7.16795e-08 -0 1.06098e-08)
(-7.05076e-08 -0 1.05308e-08)
(-6.94795e-08 -0 1.02905e-08)
(-6.83226e-08 -0 9.7011e-09)
(-6.66744e-08 -0 8.08926e-09)
(-2.06639e-08 -0 2.75292e-09)
(3.53535e-11 -0 -4.33279e-10)
(1.3685e-11 8.88985e-28 -4.10579e-10)
(-1.61279e-11 -0 -2.81337e-10)
(-5.17416e-12 -1.58644e-28 -7.32305e-11)
(-1.32186e-12 -0 -1.15941e-11)
(-2.99967e-15 -0 -8.36742e-14)
(-4.94593e-15 -0 -6.77849e-14)
(-1.8785e-16 -0 -5.94735e-14)
(-2.24151e-17 -0 -6.22274e-14)
(-6.40677e-18 -0 -6.22048e-14)
(-4.596e-18 -0 -6.22085e-14)
(-4.7633e-18 -0 -6.22094e-14)
(-4.76293e-18 -0 -6.22094e-14)
(-4.74879e-18 -0 -6.22093e-14)
(-4.77662e-18 5.20884e-35 -6.22095e-14)
(-4.76435e-18 -0 -6.22095e-14)
(-4.87957e-18 -0 -6.22105e-14)
(-5.90301e-18 -1.06122e-27 -6.22152e-14)
(-5.11318e-18 -0 -6.22107e-14)
(-4.84828e-18 1.06122e-27 -6.22097e-14)
(-4.83618e-18 -0 -6.22095e-14)
(-4.84787e-18 -1.06122e-27 -6.22092e-14)
(-4.68649e-18 -4.88989e-35 -6.2208e-14)
(-1.98002e-17 -7.96031e-35 -6.22222e-14)
(-1.9575e-15 -5.43046e-33 -6.46899e-14)
(-5.01292e-12 1.00703e-27 -2.51119e-11)
(-1.79809e-11 -9.62652e-28 -4.56383e-11)
(-7.70222e-11 -0 -2.00235e-10)
(-1.14643e-10 -2.0138e-27 -3.09208e-10)
(-4.25593e-10 -2.86781e-26 -3.45277e-10)
(-9.41073e-10 -0 -9.86092e-10)
(-1.21831e-08 3.04575e-25 4.07428e-10)
(-2.35554e-08 -0 8.15683e-09)
(-1.29065e-08 2.58157e-26 6.69327e-09)
(-1.86797e-08 4.21724e-26 8.55629e-09)
(-2.6016e-08 1.20665e-24 1.25909e-08)
(-3.23772e-08 1.1044e-24 1.88961e-08)
(-3.73494e-08 -7.02637e-25 2.32329e-08)
(-1.15295e-07 -0 2.49021e-08)
(-8.64581e-08 -5.562e-24 9.55689e-09)
(-8.06373e-08 9.38609e-24 1.00256e-08)
(-7.75728e-08 -1.21075e-23 1.02478e-08)
(-7.52615e-08 -0 1.01456e-08)
(-7.33207e-08 -0 1.00742e-08)
(-7.1786e-08 -0 1.00943e-08)
(-7.06202e-08 -0 1.0044e-08)
(-6.96171e-08 -0 9.81302e-09)
(-6.85314e-08 -0 9.21687e-09)
(-6.71125e-08 -0 7.60713e-09)
(-2.12166e-08 -0 2.66019e-09)
(3.05693e-11 -0 -4.11847e-10)
(2.25813e-11 8.76351e-28 -4.05085e-10)
(-1.02986e-11 -0 -3.16465e-10)
(-1.76184e-11 -4.52278e-28 -2.08714e-10)
(-6.41654e-12 -0 -6.9235e-11)
(-4.03932e-12 -0 -2.59142e-11)
(-8.85067e-13 -0 -4.49644e-12)
(-4.50639e-15 -0 -8.58105e-14)
(-3.95044e-15 -0 -8.04041e-14)
(-3.06538e-15 -0 -7.75135e-14)
(-2.73431e-15 -0 -7.58577e-14)
(-2.52635e-15 -0 -7.48177e-14)
(-2.37403e-15 -0 -7.4056e-14)
(-2.24208e-15 -0 -7.33962e-14)
(-2.10957e-15 2.28728e-32 -7.27337e-14)
(-1.96733e-15 -0 -7.20225e-14)
(-1.81283e-15 -0 -7.125e-14)
(-1.65123e-15 1.0805e-27 -7.0442e-14)
(-1.49528e-15 -0 -6.96623e-14)
(-1.37014e-15 -1.08048e-27 -6.90364e-14)
(-1.31754e-15 -0 -6.87731e-14)
(-1.41073e-15 1.0805e-27 -6.92385e-14)
(-1.80625e-15 -1.0805e-27 -7.12053e-14)
(-3.18855e-15 -1.0805e-27 -7.68837e-14)
(-3.26004e-12 -8.32933e-30 -3.90341e-12)
(-2.27586e-11 -1.82262e-28 -8.41353e-11)
(-4.29463e-11 1.64512e-27 -1.40271e-10)
(-8.7596e-11 -0 -2.08267e-10)
(-1.27913e-10 8.7332e-27 -3.07691e-10)
(-4.10777e-10 1.21133e-26 -3.47064e-10)
(-1.01846e-09 -2.45392e-26 -8.96364e-10)
(-1.08192e-08 1.36271e-27 3.83706e-10)
(-2.16113e-08 -5.11582e-25 7.61751e-09)
(-1.26862e-08 2.53952e-26 6.80846e-09)
(-1.77888e-08 4.09176e-26 8.64832e-09)
(-2.4353e-08 7.20992e-26 1.25239e-08)
(-2.97576e-08 1.2762e-24 1.83552e-08)
(-3.31392e-08 1.05924e-24 2.28962e-08)
(-1.03281e-07 -7.18598e-25 1.13813e-07)
(-8.73581e-08 -0 9.46185e-09)
(-8.07426e-08 -7.48813e-24 9.29842e-09)
(-7.76881e-08 1.23275e-23 9.62292e-09)
(-7.53855e-08 -1.50631e-23 9.55963e-09)
(-7.34315e-08 -0 9.52315e-09)
(-7.18871e-08 -0 9.58729e-09)
(-7.07286e-08 -0 9.56694e-09)
(-6.97512e-08 -0 9.34746e-09)
(-6.87341e-08 -0 8.7509e-09)
(-6.75189e-08 -0 7.15842e-09)
(-2.17331e-08 -0 2.56195e-09)
(2.74584e-11 -0 -3.92333e-10)
(2.97904e-11 8.59272e-28 -3.97588e-10)
(-3.66278e-12 -0 -3.24461e-10)
(-1.75927e-11 -5.42959e-28 -2.50643e-10)
(-1.92729e-11 1.53551e-27 -1.75988e-10)
(-1.0886e-11 -0 -9.12734e-11)
(-7.70374e-12 -0 -5.17634e-11)
(-6.94019e-12 -0 -3.69175e-11)
(-5.91432e-12 -0 -2.96378e-11)
(-5.07655e-12 -0 -2.54471e-11)
(-4.5784e-12 -0 -2.29555e-11)
(-4.26028e-12 -0 -2.13644e-11)
(-4.02501e-12 -0 -2.01879e-11)
(-3.81977e-12 -0 -1.91617e-11)
(-3.61209e-12 3.91638e-29 -1.81233e-11)
(-3.38712e-12 -0 -1.69985e-11)
(-3.14001e-12 -0 -1.5763e-11)
(-2.87805e-12 -1.069e-27 -1.44532e-11)
(-2.62221e-12 -0 -1.31739e-11)
(-2.41351e-12 2.61683e-29 -1.21302e-11)
(-2.32272e-12 -0 -1.16757e-11)
(-2.47189e-12 -0 -1.24204e-11)
(-3.10283e-12 -0 -1.55726e-11)
(-5.19835e-12 -0 -2.41814e-11)
(-1.62637e-11 -1.05265e-28 -4.86098e-11)
(-4.54148e-11 -3.11246e-28 -1.43669e-10)
(-5.52891e-11 1.90487e-27 -1.80687e-10)
(-9.22815e-11 -0 -2.13275e-10)
(-1.39083e-10 -4.75304e-27 -3.04327e-10)
(-4.04648e-10 1.26925e-26 -3.44634e-10)
(-1.08023e-09 1.74667e-27 -8.19145e-10)
(-9.76486e-09 -1.53515e-25 4.01459e-10)
(-1.98822e-08 9.78738e-25 7.1397e-09)
(-1.24386e-08 -7.14378e-25 6.86936e-09)
(-1.69716e-08 3.96787e-26 8.69978e-09)
(-2.2864e-08 6.86896e-26 1.24165e-08)
(-2.7491e-08 1.1937e-25 1.78121e-08)
(-2.87902e-08 1.99277e-25 2.20914e-08)
(-3.3443e-08 2.30425e-25 4.13927e-08)
(-9.62324e-08 2.63095e-24 1.18249e-08)
(-8.09035e-08 1.02265e-24 8.61256e-09)
(-7.77945e-08 -1.04845e-23 9.01043e-09)
(-7.5504e-08 1.02345e-24 8.98255e-09)
(-7.3537e-08 -0 8.9795e-09)
(-7.19828e-08 -0 9.0887e-09)
(-7.08328e-08 -0 9.0994e-09)
(-6.98815e-08 -0 8.89343e-09)
(-6.89302e-08 -0 8.30199e-09)
(-6.78965e-08 -0 6.73885e-09)
(-2.22152e-08 -0 2.46029e-09)
(2.52346e-11 -0 -3.74248e-10)
(3.57481e-11 8.39462e-28 -3.88867e-10)
(2.42139e-12 -0 -3.2763e-10)
(-1.42412e-11 -5.72107e-28 -2.6423e-10)
(-2.13169e-11 -2.64504e-27 -2.10189e-10)
(-2.28419e-11 -0 -1.67467e-10)
(-2.22293e-11 -0 -1.38498e-10)
(-1.91774e-11 -0 -1.10171e-10)
(-1.70147e-11 -0 -9.26713e-11)
(-1.58453e-11 -0 -8.34866e-11)
(-1.51504e-11 -0 -7.83157e-11)
(-1.4679e-11 -0 -7.51282e-11)
(-1.42923e-11 -0 -7.28393e-11)
(-1.39223e-11 -0 -7.08934e-11)
(-1.35294e-11 1.49396e-28 -6.89717e-11)
(-1.31028e-11 -0 -6.69353e-11)
(-1.26478e-11 -0 -6.47463e-11)
(-1.21929e-11 1.26067e-27 -6.24753e-11)
(-1.17919e-11 -0 -6.03042e-11)
(-1.15367e-11 1.23619e-27 -5.85666e-11)
(-1.1582e-11 -1.10626e-27 -5.78234e-11)
(-1.22235e-11 -0 -5.90678e-11)
(-1.42013e-11 1.1331e-27 -6.44664e-11)
(-1.99556e-11 -1.1972e-27 -8.058e-11)
(-3.68967e-11 -2.78227e-28 -1.28414e-10)
(-5.17678e-11 -3.43869e-28 -1.58781e-10)
(-6.11116e-11 -4.14932e-28 -1.91621e-10)
(-9.58483e-11 4.11808e-27 -2.15988e-10)
(-1.48417e-10 1.22969e-26 -2.99393e-10)
(-4.0275e-10 -0 -3.39548e-10)
(-1.12854e-09 1.59346e-27 -7.50489e-10)
(-8.91133e-09 -0 4.37795e-10)
(-1.83475e-08 -4.69258e-25 6.71558e-09)
(-1.21707e-08 7.32432e-25 6.88676e-09)
(-1.62195e-08 3.84602e-26 8.71611e-09)
(-2.15264e-08 6.55097e-26 1.22778e-08)
(-2.55308e-08 1.11404e-25 1.72787e-08)
(-2.63799e-08 -1.03732e-24 2.10719e-08)
(-3.17454e-08 -0 1.74047e-08)
(-9.80621e-08 -2.67875e-24 1.57084e-08)
(-8.12776e-08 6.72147e-24 7.97577e-09)
(-7.78946e-08 1.02221e-24 8.41104e-09)
(-7.56175e-08 1.02222e-24 8.41432e-09)
(-7.36373e-08 -1.74003e-23 8.4431e-09)
(-7.20732e-08 -0 8.59847e-09)
(-7.09326e-08 -0 8.6413e-09)
(-7.00078e-08 -0 8.45054e-09)
(-6.91191e-08 -0 7.86901e-09)
(-6.82475e-08 -0 6.34481e-09)
(-2.26651e-08 -0 2.35678e-09)
(2.3525e-11 -0 -3.57356e-10)
(4.06675e-11 8.17449e-28 -3.79156e-10)
(8.04573e-12 -0 -3.28318e-10)
(-1.04269e-11 -5.87007e-28 -2.71277e-10)
(-2.00167e-11 2.92398e-27 -2.23492e-10)
(-2.44313e-11 -0 -1.88559e-10)
(-2.60936e-11 -0 -1.65966e-10)
(-2.65956e-11 -0 -1.5233e-10)
(-2.66137e-11 -0 -1.43832e-10)
(-2.6522e-11 -0 -1.38789e-10)
(-2.64056e-11 -0 -1.35785e-10)
(-2.62711e-11 -0 -1.33897e-10)
(-2.6112e-11 -0 -1.32566e-10)
(-2.59236e-11 -0 -1.31468e-10)
(-2.57033e-11 2.82542e-28 -1.30417e-10)
(-2.5456e-11 -0 -1.29314e-10)
(-2.51937e-11 -0 -1.28126e-10)
(-2.4942e-11 -0 -1.26878e-10)
(-2.47461e-11 -0 -1.25665e-10)
(-2.46824e-11 -1.48759e-27 -1.24684e-10)
(-2.4882e-11 1.75208e-27 -1.24279e-10)
(-2.56028e-11 -0 -1.25058e-10)
(-2.74817e-11 -1.80236e-27 -1.28202e-10)
(-3.22705e-11 1.91598e-27 -1.36334e-10)
(-4.3623e-11 -3.30304e-28 -1.52487e-10)
(-5.48292e-11 -3.59616e-28 -1.66125e-10)
(-6.51945e-11 -4.24692e-28 -1.96231e-10)
(-9.88577e-11 -4.6867e-28 -2.16876e-10)
(-1.56183e-10 -7.53869e-27 -2.93161e-10)
(-4.0298e-10 1.4644e-26 -3.32605e-10)
(-1.1653e-09 -3.22544e-26 -6.87834e-10)
(-8.19761e-09 -0 4.8117e-10)
(-1.69837e-08 -0 6.33743e-09)
(-1.18886e-08 -1.42719e-24 6.8694e-09)
(-1.55254e-08 -9.4614e-25 8.70218e-09)
(-2.03208e-08 6.25406e-26 1.21146e-08)
(-2.38166e-08 1.04314e-25 1.67609e-08)
(-2.43683e-08 1.27796e-24 2.02367e-08)
(-2.77833e-08 -9.54359e-25 1.75575e-08)
(-1.00435e-07 -0 1.967e-08)
(-8.18458e-08 -4.78383e-24 7.3621e-09)
(-7.799e-08 9.82811e-24 7.82497e-09)
(-7.57265e-08 1.021e-24 7.85493e-09)
(-7.37326e-08 1.02113e-24 7.91378e-09)
(-7.21584e-08 -0 8.11651e-09)
(-7.10282e-08 -0 8.1925e-09)
(-7.01299e-08 -0 8.01842e-09)
(-6.93007e-08 -0 7.4509e-09)
(-6.8574e-08 -0 5.97322e-09)
(-2.30846e-08 -0 2.25255e-09)
(2.21445e-11 -0 -3.41498e-10)
(4.47139e-11 7.93798e-28 -3.68707e-10)
(1.32761e-11 -0 -3.27051e-10)
(-6.54017e-12 -5.9521e-28 -2.75262e-10)
(-1.79124e-11 -4.21302e-27 -2.31122e-10)
(-2.39349e-11 2.94902e-27 -1.98308e-10)
(-2.68165e-11 -0 -1.77086e-10)
(-2.8158e-11 -0 -1.6457e-10)
(-2.87889e-11 -0 -1.57314e-10)
(-2.90749e-11 -0 -1.53105e-10)
(-2.91827e-11 -0 -1.50629e-10)
(-2.91836e-11 -0 -1.49099e-10)
(-2.91145e-11 -0 -1.48062e-10)
(-2.89952e-11 -0 -1.47248e-10)
(-2.88393e-11 3.17308e-28 -1.46507e-10)
(-2.86598e-11 -0 -1.45757e-10)
(-2.84738e-11 -0 -1.44969e-10)
(-2.83085e-11 -0 -1.44152e-10)
(-2.82072e-11 -0 -1.43367e-10)
(-2.82413e-11 2.26463e-27 -1.42742e-10)
(-2.85336e-11 -0 -1.42513e-10)
(-2.93314e-11 -0 -1.43104e-10)
(-3.12549e-11 -0 -1.45322e-10)
(-3.59459e-11 -0 -1.5079e-10)
(-4.67559e-11 -2.78959e-27 -1.61663e-10)
(-5.69039e-11 -6.95427e-27 -1.70479e-10)
(-6.83428e-11 -4.34788e-27 -1.98152e-10)
(-1.01434e-10 -4.67232e-28 -2.16388e-10)
(-1.6263e-10 7.98859e-27 -2.85971e-10)
(-4.04227e-10 -1.66829e-26 -3.24302e-10)
(-1.19209e-09 7.55383e-26 -6.29633e-10)
(-7.58685e-09 -1.57396e-25 5.25562e-10)
(-1.57687e-08 4.67154e-25 5.99837e-09)
(-1.15974e-08 1.41376e-24 6.82429e-09)
(-1.48829e-08 -0 8.66236e-09)
(-1.92308e-08 5.9765e-26 1.19326e-08)
(-2.2307e-08 9.7964e-26 1.626e-08)
(-2.26555e-08 -1.17752e-24 1.94597e-08)
(-2.49501e-08 -2.25878e-25 1.78388e-08)
(-8.88653e-08 -0 9.64613e-08)
(-8.25019e-08 1.01997e-24 7.37673e-09)
(-7.80793e-08 -0 7.25745e-09)
(-7.58313e-08 1.01981e-24 7.30438e-09)
(-7.38232e-08 1.02e-24 7.39134e-09)
(-7.22384e-08 -1.99255e-23 7.64275e-09)
(-7.11195e-08 -0 7.75288e-09)
(-7.02479e-08 -0 7.59669e-09)
(-6.94747e-08 -0 7.04665e-09)
(-6.88779e-08 -0 5.62147e-09)
(-2.34754e-08 -0 2.14839e-09)
(2.09963e-11 -0 -3.26545e-10)
(4.80291e-11 7.69013e-28 -3.57746e-10)
(1.81395e-11 -0 -3.24174e-10)
(-2.67149e-12 -5.98773e-28 -2.77129e-10)
(-1.54853e-11 -0 -2.35904e-10)
(-2.28249e-11 -4.4239e-28 -2.04453e-10)
(-2.66831e-11 -0 -1.83725e-10)
(-2.86411e-11 -0 -1.71331e-10)
(-2.96399e-11 -0 -1.64128e-10)
(-3.01403e-11 -0 -1.59956e-10)
(-3.03711e-11 -0 -1.57511e-10)
(-3.04422e-11 -0 -1.56015e-10)
(-3.0414e-11 -0 -1.55023e-10)
(-3.03204e-11 -0 -1.54267e-10)
(-3.01833e-11 3.32542e-28 -1.53602e-10)
(-3.00211e-11 -0 -1.52944e-10)
(-2.98546e-11 -0 -1.52264e-10)
(-2.97137e-11 -0 -1.51565e-10)
(-2.96446e-11 -0 -1.509e-10)
(-2.97224e-11 -0 -1.50379e-10)
(-3.00759e-11 -0 -1.50208e-10)
(-3.09663e-11 -2.47408e-27 -1.50765e-10)
(-3.30406e-11 2.52389e-27 -1.52761e-10)
(-3.79498e-11 -0 -1.57529e-10)
(-4.87633e-11 -3.02005e-27 -1.6663e-10)
(-5.84578e-11 4.29253e-27 -1.73075e-10)
(-7.08272e-11 4.64436e-27 -1.9845e-10)
(-1.03623e-10 -4.63466e-28 -2.14837e-10)
(-1.67968e-10 -9.66754e-27 -2.78133e-10)
(-4.05857e-10 -0 -3.14982e-10)
(-1.21033e-09 -3.90429e-26 -5.75024e-10)
(-7.05534e-09 1.56313e-25 5.67823e-10)
(-1.46826e-08 1.55432e-26 5.69252e-09)
(-1.13011e-08 -1.40033e-24 6.75709e-09)
(-1.42868e-08 -9.73471e-25 8.60047e-09)
(-1.82425e-08 -1.16172e-24 1.17362e-08)
(-2.09695e-08 9.22447e-26 1.57765e-08)
(-2.11732e-08 1.37275e-24 1.87332e-08)
(-2.17868e-08 2.13162e-24 1.762e-08)
(-3.04484e-08 -0 3.68057e-08)
(-8.95545e-08 1.02442e-24 9.42974e-09)
(-7.82158e-08 -0 6.72627e-09)
(-7.59327e-08 1.01864e-24 6.7628e-09)
(-7.39093e-08 1.6269e-23 6.87557e-09)
(-7.23132e-08 2.02875e-23 7.17711e-09)
(-7.12065e-08 -0 7.32231e-09)
(-7.03614e-08 -0 7.18499e-09)
(-6.96411e-08 -0 6.65535e-09)
(-6.91607e-08 -0 5.28729e-09)
(-2.38392e-08 -0 2.04489e-09)
(2.00275e-11 -0 -3.12385e-10)
(5.07344e-11 7.43514e-28 -3.46461e-10)
(2.26501e-11 -0 -3.19983e-10)
(1.13551e-12 -5.98724e-28 -2.7735e-10)
(-1.28878e-11 -0 -2.3872e-10)
(-2.13958e-11 -4.50911e-28 -2.08515e-10)
(-2.61435e-11 -0 -1.88171e-10)
(-2.86711e-11 -0 -1.75793e-10)
(-3.00065e-11 -0 -1.68524e-10)
(-3.07009e-11 -0 -1.64293e-10)
(-3.10419e-11 -0 -1.61812e-10)
(-3.11748e-11 -0 -1.60304e-10)
(-3.11811e-11 -0 -1.59318e-10)
(-3.11069e-11 -0 -1.58585e-10)
(-3.09818e-11 3.41809e-28 -1.57955e-10)
(-3.08287e-11 -0 -1.57344e-10)
(-3.06717e-11 -0 -1.56717e-10)
(-3.05437e-11 -0 -1.56079e-10)
(-3.04943e-11 -0 -1.55473e-10)
(-3.06036e-11 -3.01365e-27 -1.55004e-10)
(-3.10093e-11 -3.0065e-27 -1.54865e-10)
(-3.19891e-11 3.35696e-27 -1.55411e-10)
(-3.42184e-11 -3.40414e-28 -1.57305e-10)
(-3.93536e-11 -3.2319e-27 -1.61694e-10)
(-5.01705e-11 3.99455e-27 -1.69595e-10)
(-5.96401e-11 -0 -1.7444e-10)
(-7.27895e-11 -4.26815e-28 -1.97615e-10)
(-1.05457e-10 -4.57873e-28 -2.12451e-10)
(-1.72373e-10 1.01425e-26 -2.69885e-10)
(-4.07494e-10 -0 -3.04906e-10)
(-1.22124e-09 8.41023e-26 -5.23557e-10)
(-6.5869e-09 -0 6.0637e-10)
(-1.37085e-08 -4.34314e-25 5.41495e-09)
(-1.10033e-08 6.82562e-25 6.67239e-09)
(-1.37325e-08 1.90277e-24 8.5199e-09)
(-1.73437e-08 -0 1.15287e-08)
(-1.9778e-08 8.70681e-26 1.53105e-08)
(-1.98902e-08 -1.27992e-24 1.80543e-08)
(-2.0201e-08 1.85401e-25 1.71412e-08)
(-2.8746e-08 -0 1.41019e-08)
(-9.07317e-08 2.94894e-24 1.27718e-08)
(-7.85217e-08 -6.18432e-24 6.2391e-09)
(-7.60326e-08 1.01748e-24 6.23035e-09)
(-7.39909e-08 -0 6.36624e-09)
(-7.23828e-08 -1.85995e-23 6.7195e-09)
(-7.12893e-08 -0 6.90067e-09)
(-7.04707e-08 -0 6.78297e-09)
(-6.97998e-08 -0 6.27614e-09)
(-6.9424e-08 -0 4.96875e-09)
(-2.41775e-08 -0 1.94241e-09)
(1.92061e-11 -0 -2.98928e-10)
(5.29322e-11 1.57211e-26 -3.35002e-10)
(2.68203e-11 -0 -3.14737e-10)
(4.85146e-12 -5.95762e-28 -2.76242e-10)
(-1.01969e-11 -0 -2.4002e-10)
(-1.97585e-11 -5.63005e-27 -2.11043e-10)
(-2.53356e-11 -0 -1.91103e-10)
(-2.84077e-11 -0 -1.78749e-10)
(-3.00708e-11 -0 -1.71411e-10)
(-3.09565e-11 -0 -1.67116e-10)
(-3.14068e-11 -0 -1.64594e-10)
(-3.16015e-11 -0 -1.63068e-10)
(-3.16421e-11 -0 -1.62083e-10)
(-3.1587e-11 -0 -1.61365e-10)
(-3.14731e-11 3.47704e-28 -1.60762e-10)
(-3.13278e-11 -0 -1.60187e-10)
(-3.11785e-11 -0 -1.59603e-10)
(-3.10608e-11 -0 -1.59011e-10)
(-3.1028e-11 -0 -1.58452e-10)
(-3.11649e-11 3.41805e-28 -1.58021e-10)
(-3.16182e-11 3.41557e-28 -1.57905e-10)
(-3.26815e-11 -0 -1.58443e-10)
(-3.5053e-11 -4.00363e-27 -1.60252e-10)
(-4.03797e-11 4.18358e-27 -1.64329e-10)
(-5.11547e-11 -4.25668e-27 -1.71229e-10)
(-6.05233e-11 -0 -1.74859e-10)
(-7.43237e-11 -6.5584e-27 -1.95938e-10)
(-1.06967e-10 -4.50843e-28 -2.09408e-10)
(-1.75985e-10 -5.61416e-28 -2.61408e-10)
(-4.08908e-10 -0 -2.94279e-10)
(-1.2259e-09 -4.48266e-26 -4.75022e-10)
(-6.17004e-09 1.58966e-25 6.40489e-10)
(-1.28315e-08 -4.40809e-25 5.16157e-09)
(-1.07064e-08 -0 6.5739e-09)
(-1.32162e-08 -9.30314e-25 8.42358e-09)
(-1.65242e-08 -1.2168e-24 1.13131e-08)
(-1.87112e-08 8.23617e-26 1.48615e-08)
(-1.87635e-08 -0 1.74189e-08)
(-1.88717e-08 1.70318e-25 1.67467e-08)
(-2.50406e-08 9.56882e-25 1.42249e-08)
(-9.22677e-08 -9.13002e-25 1.62007e-08)
(-7.89829e-08 6.29667e-24 5.77816e-09)
(-7.61326e-08 1.01635e-24 5.70688e-09)
(-7.40685e-08 -1.37563e-23 5.86313e-09)
(-7.24474e-08 1.89374e-23 6.26984e-09)
(-7.13678e-08 -2.20535e-23 6.48783e-09)
(-7.05757e-08 -0 6.3903e-09)
(-6.99511e-08 -0 5.90823e-09)
(-6.9669e-08 -0 4.66414e-09)
(-2.44917e-08 -0 1.8412e-09)
(1.85111e-11 -0 -2.861e-10)
(5.4708e-11 -1.63622e-26 -3.23489e-10)
(3.06636e-11 -0 -3.08657e-10)
(8.45496e-12 -5.90423e-28 -2.74051e-10)
(-7.46246e-12 -0 -2.40103e-10)
(-1.79762e-11 5.96811e-27 -2.12349e-10)
(-2.43283e-11 -0 -1.92846e-10)
(-2.79233e-11 -0 -1.80546e-10)
(-2.99083e-11 -0 -1.73158e-10)
(-3.09846e-11 -0 -1.68806e-10)
(-3.15452e-11 -0 -1.66248e-10)
(-3.18025e-11 -0 -1.64706e-10)
(-3.18782e-11 -0 -1.63722e-10)
(-3.18428e-11 -0 -1.63019e-10)
(-3.17402e-11 3.51131e-28 -1.6244e-10)
(-3.16027e-11 -0 -1.61897e-10)
(-3.14606e-11 -0 -1.61352e-10)
(-3.13524e-11 -0 -1.60801e-10)
(-3.13346e-11 -0 -1.60282e-10)
(-3.14971e-11 3.45647e-28 -1.59886e-10)
(-3.19945e-11 4.51241e-27 -1.5979e-10)
(-3.31349e-11 -4.18521e-27 -1.60317e-10)
(-3.56338e-11 4.25673e-27 -1.62043e-10)
(-4.11155e-11 -0 -1.65827e-10)
(-5.18097e-11 3.71283e-28 -1.71853e-10)
(-6.1154e-11 -0 -1.74521e-10)
(-7.54991e-11 -0 -1.93617e-10)
(-1.08181e-10 -4.42684e-28 -2.05848e-10)
(-1.78918e-10 -5.42153e-28 -2.5283e-10)
(-4.09961e-10 2.12884e-26 -2.83266e-10)
(-1.22528e-09 -4.60713e-26 -4.29324e-10)
(-5.79622e-09 -3.16739e-25 6.69965e-10)
(-1.20393e-08 -1.32912e-26 4.92897e-09)
(-1.04128e-08 -6.90711e-25 6.46464e-09)
(-1.27342e-08 -9.57848e-25 8.3141e-09)
(-1.5775e-08 1.16487e-24 1.10915e-08)
(-1.77518e-08 7.80654e-26 1.44288e-08)
(-1.77655e-08 1.47109e-24 1.68216e-08)
(-1.77339e-08 1.57488e-25 1.63417e-08)
(-2.24127e-08 2.32639e-25 1.45513e-08)
(-8.33189e-08 1.165e-24 7.42632e-08)