/*--------------------------------*- C++ -*----------------------------------*\
| =========                 |                                                 |
| \\      /  F ield         | OpenFOAM: The Open Source CFD Toolbox           |
|  \\    /   O peration     | Version:  v1912                                 |
|   \\  /    A nd           | Website:  www.openfoam.com                      |
|    \\/     M anipulation  |                                                 |
\*---------------------------------------------------------------------------*/
FoamFile
{
    version     2.0;
    format      ascii;
    class       volVectorField;
    location    "0";
    object      Uvol;
}
// * * * * * * * * * * * * * * * * * * * * * * * * * * * * * * * * * * * * * //

dimensions      [0 1 -1 0 0 0 0];

internalField   nonuniform List<vector> 
4250
(
(2.45132e-15 0 -7.02222e-16)
(7.67169e-16 -1.07458e-30 -5.88164e-16)
(1.4049e-15 0 -6.82368e-16)
(2.00295e-15 2.11974e-30 -7.76507e-16)
(2.58402e-15 0 -8.67924e-16)
(3.14712e-15 0 -9.56347e-16)
(3.69016e-15 0 -1.04161e-15)
(4.2119e-15 0 -1.12367e-15)
(4.71217e-15 0 -1.20264e-15)
(5.1917e-15 0 -1.27871e-15)
(5.65191e-15 0 -1.35216e-15)
(6.09466e-15 0 -1.42331e-15)
(6.52195e-15 0 -1.4925e-15)
(6.93571e-15 0 -1.56005e-15)
(7.33747e-15 -9.478e-31 -1.62623e-15)
(7.72817e-15 -1.98128e-30 -1.69128e-15)
(8.10779e-15 0 -1.75533e-15)
(8.47499e-15 -1.92761e-30 -1.81842e-15)
(8.82657e-15 0 -1.8804e-15)
(9.15671e-15 -8.63339e-31 -1.94093e-15)
(9.45577e-15 1.81987e-30 -1.99927e-15)
(9.70829e-15 1.77139e-30 -2.05405e-15)
(9.88981e-15 1.57201e-31 -2.10269e-15)
(9.96166e-15 -7.33669e-31 -2.14021e-15)
(9.8619e-15 1.84019e-31 -2.156e-15)
(9.4721e-15 -1.38709e-30 -2.12113e-15)
(8.3768e-15 -4.57646e-31 -1.91174e-15)
(4.29218e-15 -7.39817e-31 -4.30364e-16)
(1.05564e-14 -1.1568e-30 3.63114e-14)
(8.78088e-15 -4.5466e-30 -9.67964e-15)
(1.28533e-14 -7.56976e-30 -1.04601e-14)
(1.86647e-14 5.72246e-30 -1.13342e-14)
(2.01026e-14 -7.00519e-30 -1.06349e-14)
(2.25278e-14 0 -1.18109e-14)
(2.5797e-14 9.5841e-30 -1.12204e-14)
(2.48267e-14 9.88264e-30 -1.15434e-14)
(2.51394e-14 0 -1.12117e-14)
(2.40277e-14 -1.23659e-29 -1.11941e-14)
(2.39156e-14 2.82278e-29 -1.10046e-14)
(2.3005e-14 3.07749e-29 -1.07483e-14)
(2.22322e-14 0 -1.05304e-14)
(2.08773e-14 0 -1.01096e-14)
(1.89033e-14 0 -9.74058e-15)
(1.7404e-14 0 -9.39588e-15)
(1.56667e-14 0 -8.97401e-15)
(1.2862e-14 0 -8.42703e-15)
(9.12096e-15 0 -7.81941e-15)
(5.26793e-15 0 -7.25119e-15)
(3.7967e-15 0 -7.13161e-15)
(4.69132e-14 0 -1.09937e-14)
(2.39526e-15 0 -3.89349e-16)
(8.3323e-16 -5.19265e-32 -8.62202e-17)
(1.41096e-15 0 -1.64906e-16)
(1.97231e-15 6.00516e-32 -2.48794e-16)
(2.51609e-15 0 -3.27996e-16)
(3.0413e-15 0 -4.01944e-16)
(3.54618e-15 0 -4.70396e-16)
(4.0297e-15 0 -5.33265e-16)
(4.49181e-15 0 -5.90603e-16)
(4.9333e-15 0 -6.42558e-16)
(5.35558e-15 0 -6.89322e-16)
(5.76042e-15 0 -7.31082e-16)
(6.14971e-15 0 -7.67963e-16)
(6.52525e-15 0 -7.99964e-16)
(6.88847e-15 0 -8.2689e-16)
(7.24022e-15 -1.05699e-31 -8.48259e-16)
(7.58048e-15 0 -8.63179e-16)
(7.908e-15 -1.14161e-31 -8.70163e-16)
(8.21988e-15 0 -8.66844e-16)
(8.51082e-15 0 -8.49517e-16)
(8.77215e-15 1.2951e-31 -8.12369e-16)
(8.99008e-15 1.36011e-31 -7.46098e-16)
(9.14298e-15 1.43776e-31 -6.35365e-16)
(9.1972e-15 0 -4.53783e-16)
(9.10049e-15 1.66269e-31 -1.528e-16)
(8.76054e-15 -1.07441e-30 3.72017e-16)
(7.91006e-15 1.63351e-30 1.43618e-15)
(5.67232e-15 4.26233e-31 4.8029e-15)
(7.05031e-15 4.42758e-31 3.04829e-14)
(5.11316e-15 1.81418e-30 -1.62774e-15)
(1.41172e-14 9.97017e-31 -3.207e-15)
(1.9853e-14 -3.83675e-30 -5.29434e-15)
(2.15688e-14 0 -3.03491e-15)
(2.35572e-14 0 -6.33375e-15)
(2.72196e-14 0 -4.25838e-15)
(2.60728e-14 -9.9244e-31 -5.31776e-15)
(2.65607e-14 0 -4.30229e-15)
(2.54182e-14 9.9452e-31 -4.35855e-15)
(2.54042e-14 -1.38714e-29 -3.81315e-15)
(2.45802e-14 -9.97163e-31 -3.13996e-15)
(2.38955e-14 0 -2.57406e-15)
(2.26972e-14 0 -1.45535e-15)
(2.08224e-14 0 -5.47811e-16)
(1.94355e-14 0 3.29097e-16)
(1.78531e-14 0 1.41127e-15)
(1.52308e-14 0 2.76549e-15)
(1.16604e-14 0 4.21426e-15)
(7.90508e-15 0 5.54648e-15)
(5.97101e-15 0 5.85162e-15)
(4.83742e-14 0 -1.50938e-15)
(2.33127e-15 -1.07907e-30 -1.61735e-16)
(8.48313e-16 1.0458e-30 1.43033e-16)
(1.37977e-15 0 1.10525e-16)
(1.91332e-15 5.72662e-32 6.5039e-17)
(2.42923e-15 0 2.42993e-17)
(2.92597e-15 0 -1.07983e-17)
(3.40198e-15 0 -4.01694e-17)
(3.85641e-15 0 -6.38692e-17)
(4.28933e-15 0 -8.20268e-17)
(4.70157e-15 0 -9.48017e-17)
(5.09453e-15 0 -1.02339e-16)
(5.46993e-15 0 -1.04722e-16)
(5.8296e-15 0 -1.0192e-16)
(6.17523e-15 0 -9.37302e-17)
(6.50818e-15 0 -7.97016e-17)
(6.82924e-15 -9.91235e-32 -5.9033e-17)
(7.13837e-15 0 -3.04239e-17)
(7.43438e-15 -1.06684e-31 8.14345e-18)
(7.71452e-15 0 5.97428e-17)
(7.97386e-15 0 1.29047e-16)
(8.20431e-15 1.2022e-31 2.23236e-16)
(8.39313e-15 1.25882e-31 3.53563e-16)
(8.52048e-15 1.32585e-31 5.38146e-16)
(8.55578e-15 0 8.07162e-16)
(8.45237e-15 -1.86037e-30 1.21337e-15)
(8.13215e-15 6.35501e-31 1.86101e-15)
(7.39449e-15 -2.35797e-30 3.02848e-15)
(5.69487e-15 -8.18786e-31 5.87522e-15)
(3.83528e-15 -3.17719e-31 1.77265e-14)
(1.43268e-14 -3.09766e-31 6.19425e-14)
(1.39938e-14 9.98098e-31 -2.70858e-15)
(1.97121e-14 3.90645e-30 -6.19101e-15)
(2.16846e-14 0 -2.14421e-15)
(2.32723e-14 0 -7.40453e-15)
(2.74539e-14 0 -3.50178e-15)
(2.60484e-14 -9.92238e-31 -5.41095e-15)
(2.67524e-14 0 -3.68179e-15)
(2.55351e-14 9.95449e-31 -3.93024e-15)
(2.56407e-14 1.21122e-29 -3.05892e-15)
(2.48797e-14 -9.9949e-31 -2.06669e-15)
(2.42758e-14 0 -1.25221e-15)
(2.32091e-14 0 4.18679e-16)
(2.13828e-14 0 1.66107e-15)
(2.0083e-14 0 2.90582e-15)
(1.86251e-14 0 4.45796e-15)
(1.61261e-14 0 6.32836e-15)
(1.26439e-14 0 8.24229e-15)
(8.89539e-15 0 9.97183e-15)
(6.52183e-15 0 1.04419e-14)
(4.90437e-14 0 3.77695e-15)
(2.27358e-15 1.04442e-30 5.75025e-17)
(8.65079e-16 0 3.6509e-16)
(1.35561e-15 0 3.73608e-16)
(1.86358e-15 5.47503e-32 3.63454e-16)
(2.35436e-15 0 3.57662e-16)
(2.82557e-15 0 3.57534e-16)
(3.2758e-15 0 3.63001e-16)
(3.70438e-15 0 3.73855e-16)
(4.11145e-15 0 3.89871e-16)
(4.49792e-15 0 4.10855e-16)
(4.86516e-15 0 4.3668e-16)
(5.21489e-15 0 4.67331e-16)
(5.54886e-15 0 5.02949e-16)
(5.86872e-15 0 5.43885e-16)
(6.17576e-15 0 5.90778e-16)
(6.47075e-15 -9.33576e-32 6.44662e-16)
(6.75367e-15 0 7.07127e-16)
(7.02344e-15 1.04018e-30 7.80556e-16)
(7.27753e-15 0 8.685e-16)
(7.5114e-15 0 9.76268e-16)
(7.71765e-15 -2.12931e-30 1.11189e-15)
(7.88465e-15 -9.94187e-31 1.28778e-15)
(7.99445e-15 1.23099e-31 1.52359e-15)
(8.01958e-15 1.08454e-30 1.85127e-15)
(7.91879e-15 9.24515e-31 2.32455e-15)
(7.62662e-15 -1.52023e-31 3.0428e-15)
(6.99232e-15 -1.16134e-30 4.25368e-15)
(5.70231e-15 7.19805e-31 6.87463e-15)
(4.42608e-15 -7.92706e-31 1.51155e-14)
(7.538e-15 1.09723e-31 4.05916e-14)
(1.15616e-14 1.04977e-30 2.11192e-14)
(1.95887e-14 -1.97993e-30 -6.92647e-15)
(2.18108e-14 0 -1.15875e-15)
(2.29633e-14 4.81856e-30 -8.55779e-15)
(2.77464e-14 0 -2.71726e-15)
(2.60078e-14 -8.39203e-30 -5.54428e-15)
(2.69695e-14 8.67124e-30 -3.07026e-15)
(2.56509e-14 9.96302e-31 -3.53672e-15)
(2.59011e-14 -1.23323e-29 -2.35077e-15)
(2.51975e-14 -1.36725e-29 -1.04437e-15)
(2.46817e-14 0 -6.28932e-18)
(2.37508e-14 0 2.2146e-15)
(2.19611e-14 0 3.78164e-15)
(2.07524e-14 0 5.37936e-15)
(1.94238e-14 0 7.38767e-15)
(1.7046e-14 0 9.7655e-15)
(1.36454e-14 0 1.21405e-14)
(9.89282e-15 0 1.42786e-14)
(7.11472e-15 0 1.49747e-14)
(4.97345e-14 0 8.9541e-15)
(2.20829e-15 -1.09585e-30 2.01987e-16)
(8.68305e-16 -1.11393e-30 5.05793e-16)
(1.32125e-15 0 5.44257e-16)
(1.80433e-15 5.22847e-32 5.59859e-16)
(2.27102e-15 0 5.79231e-16)
(2.71793e-15 0 6.0412e-16)
(3.14376e-15 0 6.34314e-16)
(3.54796e-15 0 6.69437e-16)
(3.93078e-15 0 7.09142e-16)
(4.29314e-15 0 7.5316e-16)
(4.63645e-15 0 8.01342e-16)
(4.96237e-15 0 8.53689e-16)
(5.27262e-15 0 9.10395e-16)
(5.56878e-15 0 9.71894e-16)
(5.85212e-15 -1.17731e-30 1.03894e-15)
(6.12339e-15 1.08765e-30 1.11271e-15)
(6.38262e-15 0 1.19496e-15)
(6.62883e-15 -1.17027e-30 1.2883e-15)
(6.85973e-15 0 1.39654e-15)
(7.07117e-15 0 1.52533e-15)
(7.25641e-15 -1.04868e-31 1.68313e-15)
(7.40491e-15 0 1.88288e-15)
(7.50048e-15 1.14485e-31 2.14485e-15)
(7.51853e-15 1.20791e-31 2.50147e-15)
(7.42263e-15 1.11404e-30 3.00562e-15)
(7.15794e-15 2.04381e-30 3.74956e-15)
(6.61304e-15 7.48255e-31 4.95123e-15)
(5.59896e-15 -1.00389e-30 7.3984e-15)
(4.60763e-15 -2.25781e-31 1.36566e-14)
(4.87954e-15 0 2.81309e-14)
(1.34076e-14 1.99663e-31 6.39424e-14)
(1.71476e-14 9.88562e-31 -7.10636e-15)
(2.19313e-14 -2.36189e-30 -3.22845e-17)
(2.26188e-14 -4.9061e-30 -9.83165e-15)
(2.81033e-14 5.14804e-30 -1.87786e-15)
(2.59459e-14 0 -5.73347e-15)
(2.72131e-14 -8.82878e-30 -2.45992e-15)
(2.57619e-14 1.01933e-29 -3.1842e-15)
(2.61828e-14 0 -1.69119e-15)
(2.55306e-14 0 -7.51532e-17)
(2.51088e-14 0 1.15684e-15)
(2.43195e-14 0 3.92937e-15)
(2.25533e-14 0 5.80773e-15)
(2.1439e-14 0 7.74252e-15)
(2.02448e-14 0 1.01931e-14)
(1.79866e-14 0 1.30696e-14)
(1.46621e-14 0 1.59009e-14)
(1.08981e-14 0 1.84582e-14)
(7.74507e-15 0 1.94325e-14)
(5.04425e-14 0 1.40201e-14)
(2.13021e-15 1.06403e-30 2.4768e-16)
(8.52369e-16 -4.34167e-32 5.38792e-16)
(1.2702e-15 0 5.94838e-16)
(1.72863e-15 4.9786e-32 6.25153e-16)
(2.17177e-15 0 6.58685e-16)
(2.59509e-15 0 6.97629e-16)
(2.99734e-15 0 7.41632e-16)
(3.3781e-15 0 7.90128e-16)
(3.73769e-15 0 8.4261e-16)
(4.07706e-15 0 8.98691e-16)
(4.39762e-15 0 9.5815e-16)
(4.70099e-15 0 1.02095e-15)
(4.98884e-15 0 1.0873e-15)
(5.26273e-15 0 1.15765e-15)
(5.52388e-15 -7.99721e-32 1.23281e-15)
(5.77304e-15 -1.19944e-30 1.31404e-15)
(6.01029e-15 0 1.4032e-15)
(6.23477e-15 1.10867e-30 1.50301e-15)
(6.44441e-15 0 1.61744e-15)
(6.63545e-15 0 1.7523e-15)
(6.80177e-15 -9.78697e-32 1.91626e-15)
(6.93387e-15 0 2.12248e-15)
(7.01722e-15 1.06421e-31 2.39145e-15)
(7.0299e-15 1.11991e-31 2.75564e-15)
(6.93976e-15 1.19031e-31 3.26686e-15)
(6.7007e-15 -2.15262e-30 4.01023e-15)
(6.23251e-15 -1.41438e-31 5.17166e-15)
(5.42812e-15 -1.61796e-31 7.43227e-15)
(4.71449e-15 -1.98214e-31 1.27496e-14)
(5.21837e-15 -8.766e-31 2.19458e-14)
(7.75978e-15 -6.62685e-31 4.60176e-14)
(1.58167e-14 1.04601e-30 3.90712e-14)
(2.21023e-14 1.00774e-30 1.73877e-15)
(2.22274e-14 -3.01518e-30 -1.12602e-14)
(2.85322e-14 -9.48124e-30 -9.5648e-16)
(2.58563e-14 0 -5.9939e-15)
(2.74849e-14 0 -1.84273e-15)
(2.58641e-14 0 -2.87816e-15)
(2.64839e-14 0 -1.08222e-15)
(2.58759e-14 1.11076e-29 8.3978e-16)
(2.55532e-14 0 2.23117e-15)
(2.49125e-14 0 5.56087e-15)
(2.31554e-14 0 7.73438e-15)
(2.21387e-14 0 9.98934e-15)
(2.10839e-14 0 1.28681e-14)
(1.89442e-14 0 1.62345e-14)
(1.56913e-14 0 1.95168e-14)
(1.19115e-14 0 2.25028e-14)
(8.40915e-15 0 2.38003e-14)
(5.11644e-14 0 1.89727e-14)
(2.03984e-15 0 1.9886e-16)
(8.1802e-16 -4.12907e-32 4.69316e-16)
(1.20304e-15 0 5.3216e-16)
(1.63725e-15 4.72551e-32 5.67677e-16)
(2.05749e-15 0 6.06104e-16)
(2.45804e-15 0 6.50044e-16)
(2.83766e-15 0 6.98991e-16)
(3.19601e-15 0 7.52155e-16)
(3.53349e-15 0 8.08823e-16)
(3.85106e-15 0 8.68444e-16)
(4.15011e-15 0 9.30675e-16)
(4.43223e-15 0 9.95405e-16)
(4.69906e-15 0 1.06279e-15)
(4.9521e-15 0 1.13329e-15)
(5.19257e-15 -7.50804e-32 1.20773e-15)
(5.42121e-15 1.14345e-30 1.28742e-15)
(5.63816e-15 0 1.3743e-15)
(5.84269e-15 0 1.47118e-15)
(6.03294e-15 0 1.58214e-15)
(6.20555e-15 -1.21834e-30 1.71315e-15)
(6.35501e-15 1.12501e-30 1.87304e-15)
(6.47282e-15 0 2.07517e-15)
(6.54607e-15 9.88478e-32 2.34031e-15)
(6.55539e-15 1.03804e-31 2.70125e-15)
(6.4726e-15 1.10045e-31 3.20973e-15)
(6.25872e-15 1.06453e-30 3.94611e-15)
(5.85685e-15 1.03399e-30 5.06136e-15)
(5.21301e-15 9.85782e-31 7.10074e-15)
(4.59647e-15 -1.76286e-31 1.17002e-14)
(4.41855e-15 1.74753e-30 1.70091e-14)
(3.18883e-15 5.36545e-31 2.24262e-14)
(1.19222e-14 -5.32364e-31 5.47037e-14)
(2.30482e-14 1.42244e-30 3.1523e-14)
(2.17832e-14 9.76626e-31 -1.26109e-14)
(2.90419e-14 1.00414e-30 7.75823e-17)
(2.57323e-14 0 -6.34118e-15)
(2.7787e-14 6.09775e-30 -1.21015e-15)
(2.59532e-14 -7.51923e-30 -2.62347e-15)
(2.68026e-14 0 -5.25447e-16)
(2.62303e-14 -1.00766e-30 1.70019e-15)
(2.60108e-14 -1.17292e-29 3.2114e-15)
(2.55275e-14 0 7.10793e-15)
(2.37639e-14 0 9.55777e-15)
(2.28475e-14 0 1.21151e-14)
(2.19373e-14 0 1.54079e-14)
(1.99153e-14 0 1.92554e-14)
(1.67304e-14 0 2.29825e-14)
(1.29331e-14 0 2.64061e-14)
(9.10392e-15 0 2.80658e-14)
(5.18977e-14 0 2.38097e-14)
(1.9406e-15 0 7.42219e-17)
(7.6922e-16 -3.91593e-32 3.1839e-16)
(1.12384e-15 0 3.8004e-16)
(1.5347e-15 4.47328e-32 4.13957e-16)
(1.93304e-15 0 4.50873e-16)
(2.31199e-15 0 4.93707e-16)
(2.67026e-15 0 5.41773e-16)
(3.00758e-15 0 5.94008e-16)
(3.32436e-15 0 6.49442e-16)
(3.62159e-15 0 7.07309e-16)
(3.90063e-15 0 7.67099e-16)
(4.16306e-15 0 8.28586e-16)
(4.41046e-15 0 8.91857e-16)
(4.64431e-15 0 9.57345e-16)
(4.86581e-15 -7.03783e-32 1.0259e-15)
(5.07572e-15 0 1.09886e-15)
(5.27423e-15 0 1.17826e-15)
(5.46076e-15 -1.24228e-30 1.26703e-15)
(5.6337e-15 0 1.36942e-15)
(5.79005e-15 1.16007e-30 1.49159e-15)
(5.92494e-15 0 1.64264e-15)
(6.03085e-15 -1.23989e-30 1.8363e-15)
(6.0965e-15 9.18094e-32 2.09389e-15)
(6.10507e-15 9.62563e-32 2.44913e-15)
(6.03224e-15 1.01847e-31 2.95532e-15)
(5.8449e-15 1.21983e-30 3.69276e-15)
(5.50152e-15 -1.20597e-30 4.78316e-15)
(4.97622e-15 0 6.58265e-15)
(4.33562e-15 -1.30164e-30 1.03967e-14)
(3.75533e-15 -3.01955e-30 1.42063e-14)
(3.74724e-15 0 1.9067e-14)
(1.04996e-14 1.13076e-30 5.05622e-14)
(1.96089e-14 0 8.20509e-14)
(1.86309e-14 9.75129e-31 -1.33011e-14)
(2.96165e-14 1.00671e-30 1.26265e-15)
(2.55654e-14 -3.88136e-30 -6.79156e-15)
(2.81225e-14 -6.20854e-30 -5.52935e-16)
(2.60248e-14 7.65584e-30 -2.42464e-15)
(2.71376e-14 0 -2.20395e-17)
(2.65911e-14 -1.04889e-29 2.50674e-15)
(2.64779e-14 1.19423e-29 4.09283e-15)
(2.61626e-14 -1.23646e-29 8.57027e-15)
(2.43751e-14 0 1.12751e-14)
(2.35617e-14 0 1.4116e-14)
(2.28015e-14 0 1.78088e-14)
(2.08968e-14 0 2.21285e-14)
(1.7777e-14 0 2.62933e-14)
(1.39626e-14 0 3.01621e-14)
(9.82693e-15 0 3.22183e-14)
(5.26404e-14 0 2.85291e-14)
(1.83661e-15 0 -1.03537e-16)
(7.10806e-16 -3.70643e-32 1.11199e-16)
(1.03762e-15 0 1.66459e-16)
(1.42639e-15 4.22679e-32 1.94689e-16)
(1.80421e-15 0 2.26451e-16)
(2.16306e-15 0 2.64892e-16)
(2.50156e-15 0 3.0908e-16)
(2.81947e-15 0 3.57626e-16)
(3.11723e-15 0 4.09248e-16)
(3.39583e-15 0 4.62915e-16)
(3.6566e-15 0 5.17912e-16)
(3.90109e-15 0 5.73864e-16)
(4.13084e-15 0 6.3077e-16)
(4.34732e-15 0 6.89032e-16)
(4.55171e-15 -6.59371e-32 7.49511e-16)
(4.7448e-15 0 8.13627e-16)
(4.92688e-15 0 8.83512e-16)
(5.09749e-15 1.19005e-30 9.62271e-16)
(5.25528e-15 0 1.05438e-15)
(5.39765e-15 -1.26394e-30 1.16632e-15)
(5.52037e-15 0 1.30759e-15)
(5.61693e-15 1.18198e-30 1.49248e-15)
(5.67763e-15 -1.17777e-30 1.74316e-15)
(5.68826e-15 -1.17195e-30 2.09478e-15)
(5.62839e-15 9.44411e-32 2.60344e-15)
(5.47027e-15 1.0108e-31 3.35479e-15)
(5.18098e-15 1.13313e-30 4.46321e-15)
(4.74614e-15 0 6.10772e-15)
(4.04361e-15 2.11058e-30 8.99499e-15)
(3.86732e-15 7.98079e-31 1.40363e-14)
(4.89637e-15 -1.05566e-30 2.08666e-14)
(9.01337e-15 2.95007e-31 3.50703e-14)
(9.9363e-15 -7.03383e-31 5.43551e-14)
(1.19023e-14 1.04468e-30 1.87746e-14)
(3.02683e-14 1.01035e-30 2.94141e-15)
(2.53466e-14 9.88013e-31 -7.35956e-15)
(2.8495e-14 -4.29607e-30 1.39122e-16)
(2.60741e-14 -5.77906e-30 -2.28588e-15)
(2.74879e-14 7.20217e-30 4.27218e-16)
(2.69554e-14 0 3.26098e-15)
(2.69512e-14 -1.01135e-29 4.87128e-15)
(2.68163e-14 1.25892e-29 9.94849e-15)
(2.49857e-14 -1.30856e-29 1.28844e-14)
(2.4278e-14 0 1.59895e-14)
(2.36733e-14 0 2.00679e-14)
(2.18858e-14 0 2.48511e-14)
(1.88291e-14 0 2.94458e-14)
(1.49996e-14 0 3.37665e-14)
(1.05762e-14 0 3.6249e-14)
(5.3391e-14 0 3.31292e-14)
(1.73162e-15 0 -3.13511e-16)
(6.47212e-16 -3.50425e-32 -1.29276e-16)
(9.48867e-16 0 -8.33494e-17)
(1.31711e-15 3.99019e-32 -6.27329e-17)
(1.67602e-15 1.20401e-30 -3.761e-17)
(2.01648e-15 0 -4.71478e-18)
(2.33697e-15 0 3.47133e-17)
(2.63727e-15 0 7.88945e-17)
(2.91782e-15 0 1.26179e-16)
(3.17959e-15 0 1.75225e-16)
(3.42391e-15 0 2.25074e-16)
(3.65227e-15 0 2.75182e-16)
(3.86621e-15 0 3.25448e-16)
(4.06716e-15 0 3.76241e-16)
(4.25632e-15 -6.18063e-32 4.28449e-16)
(4.43453e-15 0 4.83577e-16)
(4.60214e-15 0 5.43909e-16)
(4.75888e-15 -1.28057e-30 6.12765e-16)
(4.90365e-15 0 6.94922e-16)
(5.03426e-15 -7.1508e-32 7.97254e-16)
(5.14711e-15 0 9.29791e-16)
(5.23669e-15 0 1.10752e-15)
(5.29488e-15 0 1.35353e-15)
(5.31001e-15 0 1.70453e-15)
(5.2656e-15 8.77979e-32 2.2196e-15)
(5.13941e-15 9.3878e-32 2.99166e-15)
(4.90448e-15 1.27636e-30 4.15158e-15)
(4.54757e-15 0 5.8308e-15)
(3.96026e-15 -1.24423e-30 8.12166e-15)
(4.26326e-15 1.04786e-30 1.46677e-14)
(4.86575e-15 -1.95271e-31 1.99058e-14)
(6.44171e-15 -7.89022e-31 2.47184e-14)
(2.74406e-15 1.4413e-30 2.27092e-14)
(2.05405e-14 5.95655e-32 9.61037e-14)
(3.35748e-14 1.07725e-30 3.37938e-14)
(2.50891e-14 9.87069e-31 -7.79466e-15)
(2.8909e-14 1.00588e-30 8.79801e-16)
(2.60961e-14 9.99176e-31 -2.21127e-15)
(2.7853e-14 -7.33302e-30 8.21878e-16)
(2.73208e-14 7.78505e-30 3.96532e-15)
(2.74271e-14 1.01599e-30 5.54294e-15)
(2.74871e-14 -1.07454e-29 1.1244e-14)
(2.55924e-14 1.03516e-30 1.43847e-14)
(2.49932e-14 0 1.77337e-14)
(2.45498e-14 0 2.21837e-14)
(2.28796e-14 0 2.74215e-14)
(1.98845e-14 0 3.24372e-14)
(1.60436e-14 0 3.72153e-14)
(1.13501e-14 0 4.01508e-14)
(5.41485e-14 0 3.76087e-14)
(1.62859e-15 0 -5.38767e-16)
(5.81978e-16 -3.31203e-32 -3.84602e-16)
(8.61128e-16 0 -3.49305e-16)
(1.21055e-15 3.76638e-32 -3.36737e-16)
(1.55227e-15 -1.17427e-30 -3.18281e-16)
(1.87612e-15 0 -2.90675e-16)
(2.18041e-15 0 -2.55536e-16)
(2.4649e-15 0 -2.15097e-16)
(2.73004e-15 0 -1.71428e-16)
(2.97677e-15 0 -1.26222e-16)
(3.20639e-15 0 -8.07122e-17)
(3.42038e-15 0 -3.56243e-17)
(3.62026e-15 0 8.83404e-18)
(3.80745e-15 0 5.29978e-17)
(3.98315e-15 -5.80095e-32 9.77987e-17)
(4.14827e-15 0 1.44842e-16)
(4.30326e-15 0 1.96584e-16)
(4.44801e-15 1.23489e-30 2.56597e-16)
(4.58168e-15 0 3.29996e-16)
(4.70251e-15 1.23602e-30 4.24112e-16)
(4.80751e-15 -1.30495e-30 5.49539e-16)
(4.89213e-15 0 7.21939e-16)
(4.94972e-15 1.30813e-30 9.65217e-16)
(4.971e-15 -1.30913e-30 1.31718e-15)
(4.94325e-15 8.18555e-32 1.83898e-15)
(4.8499e-15 8.74625e-32 2.62864e-15)
(4.67103e-15 9.51204e-32 3.83457e-15)
(4.39263e-15 1.29969e-30 5.6404e-15)
(4.06013e-15 2.45129e-30 8.05246e-15)
(4.25876e-15 0 1.36858e-14)
(4.24775e-15 -1.72915e-31 1.71588e-14)
(4.85797e-15 0 1.95388e-14)
(4.23879e-15 -7.50534e-31 1.64116e-14)
(1.2956e-14 7.70368e-31 6.21272e-14)
(2.03133e-14 6.83377e-31 8.14159e-14)
(2.21227e-14 9.87338e-31 -7.6706e-15)
(2.93454e-14 1.00763e-30 1.68821e-15)
(2.60849e-14 4.97363e-30 -2.2048e-15)
(2.82327e-14 0 1.16178e-15)
(2.76849e-14 -7.92649e-30 4.62301e-15)
(2.79024e-14 9.44984e-30 6.10429e-15)
(2.81742e-14 1.03099e-30 1.2459e-14)
(2.61922e-14 1.03818e-30 1.57758e-14)
(2.57046e-14 -1.30742e-29 1.93479e-14)
(2.54285e-14 0 2.41552e-14)
(2.38759e-14 0 2.98389e-14)
(2.09411e-14 0 3.52658e-14)
(1.7094e-14 0 4.05058e-14)
(1.21475e-14 0 4.39174e-14)
(5.49121e-14 0 4.19668e-14)
(1.52962e-15 0 -7.66521e-16)
(5.17728e-16 -3.13149e-32 -6.41025e-16)
(7.7693e-16 0 -6.16526e-16)
(1.10931e-15 3.5571e-32 -6.11486e-16)
(1.43555e-15 1.22428e-30 -5.98832e-16)
(1.74454e-15 0 -5.7544e-16)
(2.03438e-15 0 -5.43368e-16)
(2.30479e-15 0 -5.05361e-16)
(2.55621e-15 0 -4.63956e-16)
(2.78956e-15 0 -4.21235e-16)
(3.00612e-15 0 -3.78717e-16)
(3.20736e-15 0 -3.37329e-16)
(3.39476e-15 0 -2.97382e-16)
(3.56977e-15 0 -2.58564e-16)
(3.73362e-15 -5.45491e-32 -2.19901e-16)
(3.88725e-15 0 -1.79669e-16)
(4.03123e-15 0 -1.35235e-16)
(4.16562e-15 0 -8.27682e-17)
(4.28984e-15 0 -1.68086e-17)
(4.40254e-15 -1.32082e-30 7.04238e-17)
(4.50132e-15 1.25887e-30 1.90068e-16)
(4.58249e-15 0 3.58353e-16)
(4.64076e-15 -1.25893e-30 5.99613e-16)
(4.66889e-15 1.25788e-30 9.51824e-16)
(4.65745e-15 7.65352e-32 1.47634e-15)
(4.59493e-15 8.17196e-32 2.27299e-15)
(4.46867e-15 8.88038e-32 3.49765e-15)
(4.27081e-15 9.87599e-32 5.3688e-15)
(4.11667e-15 -1.20973e-30 8.06122e-15)
(3.95656e-15 1.30426e-30 1.18328e-14)
(3.72468e-15 -1.42146e-30 1.49115e-14)
(4.14845e-15 0 1.79821e-14)
(4.08112e-15 0 1.7771e-14)
(7.34326e-15 -1.59077e-30 2.50205e-14)
(1.1668e-14 -3.012e-31 5.25329e-14)
(1.7999e-14 1.07386e-30 3.22299e-14)
(2.98401e-14 1.01034e-30 2.93498e-15)
(2.6035e-14 -3.04759e-30 -2.26738e-15)
(2.86272e-14 4.52737e-30 1.44703e-15)
(2.80454e-14 0 5.2381e-15)
(2.83739e-14 -7.56766e-30 6.552e-15)
(2.88771e-14 1.00897e-29 1.35966e-14)
(2.67821e-14 1.04096e-30 1.70578e-14)
(2.64096e-14 1.04914e-30 2.08318e-14)
(2.6307e-14 0 2.59822e-14)
(2.48723e-14 0 3.21031e-14)
(2.19973e-14 0 3.79307e-14)
(1.81502e-14 0 4.36359e-14)
(1.29673e-14 0 4.75442e-14)
(5.56816e-14 0 4.62032e-14)
(1.43612e-15 0 -9.87551e-16)
(4.563e-16 -2.9635e-32 -8.88757e-16)
(6.97978e-16 0 -8.74482e-16)
(1.01504e-15 3.36319e-32 -8.7587e-16)
(1.32748e-15 -1.19921e-30 -8.67652e-16)
(1.62327e-15 1.24812e-30 -8.46977e-16)
(1.90028e-15 0 -8.16402e-16)
(2.1582e-15 0 -7.79235e-16)
(2.39744e-15 0 -7.38524e-16)
(2.61891e-15 0 -6.96759e-16)
(2.82387e-15 0 -6.55763e-16)
(3.01376e-15 0 -6.16656e-16)
(3.1901e-15 0 -5.79854e-16)
(3.35431e-15 0 -5.45058e-16)
(3.50767e-15 -5.14138e-32 -5.11244e-16)
(3.65118e-15 0 -4.76571e-16)
(3.78552e-15 0 -4.38234e-16)
(3.91091e-15 0 -3.92172e-16)
(4.02703e-15 0 -3.3261e-16)
(4.13289e-15 1.27907e-30 -2.51375e-16)
(4.22666e-15 0 -1.36858e-16)
(4.30542e-15 0 2.75817e-17)
(4.36501e-15 0 2.66312e-16)
(4.39988e-15 0 6.16357e-16)
(4.40317e-15 -1.28166e-30 1.13661e-15)
(4.36732e-15 -2.63528e-30 1.92372e-15)
(4.28545e-15 -1.27465e-30 3.1341e-15)
(4.15481e-15 9.22482e-32 4.99886e-15)
(4.06276e-15 1.35483e-30 7.76244e-15)
(3.7268e-15 -1.22246e-30 1.05415e-14)
(3.73878e-15 2.35045e-30 1.46739e-14)
(4.26952e-15 -1.27078e-30 1.88144e-14)
(4.87549e-15 1.18991e-30 2.16162e-14)
(7.43332e-15 1.87593e-30 2.83822e-14)
(4.77486e-15 0 2.31928e-14)
(2.72858e-14 6.84489e-31 1.21171e-13)
(3.09532e-14 1.05964e-30 2.56728e-14)
(2.59446e-14 3.10296e-30 -2.21446e-15)
(2.90371e-14 -1.00761e-30 1.67957e-15)
(2.84002e-14 0 5.81546e-15)
(2.88387e-14 1.0189e-30 6.88284e-15)
(2.95955e-14 0 1.46604e-14)
(2.73592e-14 1.04351e-30 1.82318e-14)
(2.71057e-14 1.05208e-30 2.21859e-14)
(2.71832e-14 -1.30859e-29 2.76656e-14)
(2.58669e-14 0 3.4215e-14)
(2.30513e-14 0 4.04316e-14)
(1.92114e-14 0 4.66044e-14)
(1.38088e-14 0 5.10273e-14)
(5.64568e-14 0 5.03181e-14)
(1.34896e-15 0 -1.19551e-15)
(3.98916e-16 -2.8084e-32 -1.12114e-15)
(6.25331e-16 0 -1.11605e-15)
(9.28756e-16 3.18482e-32 -1.12244e-15)
(1.22895e-15 0 -1.11704e-15)
(1.51306e-15 3.53488e-32 -1.09741e-15)
(1.77874e-15 0 -1.06667e-15)
(2.0256e-15 0 -1.02872e-15)
(2.25402e-15 0 -9.87149e-16)
(2.46492e-15 0 -9.44879e-16)
(2.65952e-15 0 -9.04034e-16)
(2.8393e-15 0 -8.65924e-16)
(3.00574e-15 0 -8.3105e-16)
(3.16033e-15 0 -7.99123e-16)
(3.30435e-15 -4.85842e-32 -7.69054e-16)
(3.4389e-15 0 -7.38898e-16)
(3.56472e-15 0 -7.05699e-16)
(3.68221e-15 0 -6.65208e-16)
(3.79127e-15 0 -6.11414e-16)
(3.89127e-15 0 -5.35847e-16)
(3.98086e-15 0 -4.26544e-16)
(4.05782e-15 -1.36232e-30 -2.6658e-16)
(4.11893e-15 1.36605e-30 -3.17793e-17)
(4.15991e-15 0 3.13228e-16)
(4.17565e-15 -1.3735e-30 8.2259e-16)
(4.16116e-15 1.30531e-30 1.58366e-15)
(4.11357e-15 1.38055e-30 2.74128e-15)
(4.03471e-15 8.61757e-32 4.52652e-15)
(3.96293e-15 -1.28549e-30 7.23859e-15)
(3.75466e-15 0 1.01932e-14)
(3.90852e-15 -1.3628e-30 1.47319e-14)
(4.21386e-15 1.1698e-30 1.84244e-14)
(4.77237e-15 1.85568e-31 2.15477e-14)
(6.07277e-15 -2.11328e-30 2.49515e-14)
(7.52355e-15 -1.01883e-30 2.05499e-14)
(1.4986e-14 -4.19234e-31 6.84361e-14)
(1.46736e-14 7.0274e-31 6.56534e-14)
(2.39418e-14 -1.14198e-30 -1.81671e-15)
(2.94471e-14 -6.3269e-30 1.86361e-15)
(2.87473e-14 0 6.36076e-15)
(2.92935e-14 1.01935e-30 7.09355e-15)
(3.03297e-14 0 1.56549e-14)
(2.79207e-14 1.04582e-30 1.92993e-14)
(2.77908e-14 1.1641e-29 2.34114e-14)
(2.80552e-14 1.33237e-29 2.92066e-14)
(2.68578e-14 0 3.6176e-14)
(2.41013e-14 0 4.2769e-14)
(2.02769e-14 0 4.94108e-14)
(1.46714e-14 0 5.43636e-14)
(5.7238e-14 0 5.43122e-14)
(1.2686e-15 0 -1.38623e-15)
(3.46333e-16 -2.66608e-32 -1.33388e-15)
(5.59571e-16 0 -1.33667e-15)
(8.50933e-16 3.0217e-32 -1.34647e-15)
(1.14032e-15 0 -1.34219e-15)
(1.41416e-15 3.35374e-32 -1.32192e-15)
(1.66983e-15 0 -1.28937e-15)
(1.90688e-15 0 -1.24911e-15)
(2.12568e-15 0 -1.20529e-15)
(2.32711e-15 0 -1.16125e-15)
(2.51243e-15 0 -1.11941e-15)
(2.6831e-15 0 -1.08125e-15)
(2.84066e-15 0 -1.04734e-15)
(2.98658e-15 0 -1.01739e-15)
(3.12223e-15 -4.60368e-32 -9.90227e-16)
(3.24873e-15 0 -9.63819e-16)
(3.36695e-15 0 -9.35087e-16)
(3.47741e-15 0 -8.99657e-16)
(3.58022e-15 0 -8.51383e-16)
(3.67504e-15 -1.37107e-30 -7.81642e-16)
(3.76096e-15 -1.37535e-30 -6.78284e-16)
(3.83638e-15 1.32372e-30 -5.24209e-16)
(3.89889e-15 5.7946e-32 -2.95404e-16)
(3.94519e-15 -1.38821e-30 4.1962e-17)
(3.97125e-15 1.32912e-30 5.36697e-16)
(3.97321e-15 0 1.26325e-15)
(3.94944e-15 7.30368e-32 2.34296e-15)
(3.90376e-15 8.05131e-32 3.97859e-15)
(3.85411e-15 1.40935e-30 6.4808e-15)
(3.77697e-15 0 9.79585e-15)
(3.73359e-15 2.67674e-30 1.34223e-14)
(3.87236e-15 0 1.67358e-14)
(4.38988e-15 -1.16217e-30 2.01373e-14)
(5.21272e-15 1.0564e-30 2.29879e-14)
(6.30996e-15 2.04348e-30 2.13898e-14)
(2.98055e-15 0 5.14676e-15)
(9.75676e-15 4.19547e-31 4.64771e-14)
(2.35166e-14 1.16273e-30 3.75176e-14)
(2.99042e-14 1.00902e-30 2.33046e-15)
(2.9085e-14 0 6.88324e-15)
(2.97356e-14 5.89354e-30 7.18082e-15)
(3.10799e-14 -6.38844e-30 1.6585e-14)
(2.84641e-14 1.04791e-30 2.02619e-14)
(2.8463e-14 0 2.45098e-14)
(2.89214e-14 -1.14087e-29 3.0607e-14)
(2.78433e-14 0 3.79881e-14)
(2.5146e-14 0 4.4944e-14)
(2.13459e-14 0 5.20552e-14)
(1.55547e-14 0 5.75508e-14)
(5.80256e-14 0 5.81866e-14)
(1.19518e-15 0 -1.5572e-15)
(2.98971e-16 1.18676e-30 -1.52443e-15)
(5.00947e-16 0 -1.53365e-15)
(7.81717e-16 2.87327e-32 -1.5452e-15)
(1.06163e-15 0 -1.54033e-15)
(1.32644e-15 -1.25047e-30 -1.51776e-15)
(1.57328e-15 0 -1.4819e-15)
(1.80161e-15 0 -1.43799e-15)
(2.01178e-15 0 -1.39073e-15)
(2.20469e-15 0 -1.34389e-15)
(2.38162e-15 0 -1.30018e-15)
(2.54404e-15 0 -1.2612e-15)
(2.69352e-15 0 -1.22757e-15)
(2.83158e-15 0 -1.19896e-15)
(2.95963e-15 -4.37475e-32 -1.17413e-15)
(3.07886e-15 0 -1.15096e-15)
(3.1902e-15 0 -1.12627e-15)
(3.2943e-15 0 -1.09563e-15)
(3.39145e-15 0 -1.05289e-15)
(3.48156e-15 -4.98207e-32 -9.89427e-16)
(3.56408e-15 -5.1272e-32 -8.93163e-16)
(3.63795e-15 0 -7.47031e-16)
(3.70147e-15 -1.34639e-30 -5.2709e-16)
(3.75224e-15 1.34894e-30 -2.00193e-16)
(3.78708e-15 -1.41121e-30 2.78992e-16)
(3.80246e-15 0 9.73261e-16)
(3.79591e-15 -1.3535e-30 1.97558e-15)
(3.76872e-15 7.53619e-32 3.43878e-15)
(3.72762e-15 8.46352e-32 5.62606e-15)
(3.65533e-15 0 8.80386e-15)
(3.5803e-15 -1.31994e-30 1.22842e-14)
(3.86336e-15 1.42035e-30 1.63141e-14)
(4.39703e-15 -1.38848e-30 2.01551e-14)
(5.05149e-15 0 2.34605e-14)
(5.77568e-15 -1.02387e-30 2.49466e-14)
(4.55146e-15 -1.09458e-30 1.53538e-14)
(7.20969e-15 3.23427e-31 3.09512e-14)
(2.62777e-14 0 1.06372e-13)
(2.71397e-14 1.01206e-30 3.72832e-15)
(2.93844e-14 -2.28701e-30 7.39856e-15)
(3.01615e-14 -3.94309e-30 7.14123e-15)
(3.18473e-14 6.5045e-30 1.74564e-14)
(2.89866e-14 1.04977e-30 2.11221e-14)
(2.91206e-14 -8.83884e-30 2.54833e-14)
(2.97803e-14 1.1616e-29 3.18693e-14)
(2.88219e-14 -1.22756e-29 3.96539e-14)
(2.61838e-14 0 4.69582e-14)
(2.24177e-14 0 5.45384e-14)
(1.64584e-14 0 6.05875e-14)
(5.88202e-14 0 6.19432e-14)
(1.12866e-15 0 -1.70707e-15)
(2.57005e-16 -1.22309e-30 -1.69152e-15)
(4.49464e-16 0 -1.70566e-15)
(7.21007e-16 2.73879e-32 -1.7173e-15)
(9.92642e-16 0 -1.71016e-15)
(1.24954e-15 1.29444e-30 -1.68376e-15)
(1.48857e-15 0 -1.64322e-15)
(1.70912e-15 0 -1.59449e-15)
(1.91152e-15 0 -1.54284e-15)
(2.09669e-15 0 -1.49245e-15)
(2.26595e-15 0 -1.44624e-15)
(2.42081e-15 0 -1.40594e-15)
(2.56288e-15 0 -1.37216e-15)
(2.69373e-15 0 -1.34452e-15)
(2.81481e-15 -4.16922e-32 -1.32168e-15)
(2.92738e-15 0 -1.30143e-15)
(3.03244e-15 0 -1.28054e-15)
(3.13074e-15 0 -1.25458e-15)
(3.22269e-15 0 -1.21746e-15)
(3.30841e-15 -4.73672e-32 -1.16079e-15)
(3.38763e-15 1.35946e-30 -1.07283e-15)
(3.45973e-15 -1.41319e-30 -9.36952e-16)
(3.52362e-15 1.4183e-30 -7.29624e-16)
(3.57776e-15 0 -4.17865e-16)
(3.62e-15 -5.68976e-32 4.32665e-17)
(3.64749e-15 0 7.12545e-16)
(3.65684e-15 0 1.66473e-15)
(3.64509e-15 7.08511e-32 3.00021e-15)
(3.60908e-15 7.89172e-32 4.88577e-15)
(3.52487e-15 1.46061e-30 7.65236e-15)
(3.65654e-15 -1.46409e-30 1.18946e-14)
(3.95183e-15 -2.78971e-30 1.61122e-14)
(4.32612e-15 -1.46411e-31 1.96629e-14)
(4.89703e-15 -1.39436e-30 2.31236e-14)
(5.67381e-15 -1.32329e-30 2.64411e-14)
(6.43781e-15 9.78786e-31 2.7225e-14)
(9.46165e-15 2.81616e-31 3.02437e-14)
(1.48549e-14 8.22983e-31 6.63402e-14)
(2.23575e-14 1.14968e-30 6.71982e-14)
(2.96905e-14 1.02224e-30 8.42312e-15)
(3.05686e-14 1.0191e-30 6.97525e-15)
(3.26329e-14 0 1.82753e-14)
(2.94858e-14 1.05142e-30 2.18822e-14)
(2.97619e-14 1.06107e-30 2.63343e-14)
(3.06308e-14 0 3.29964e-14)
(2.97923e-14 1.24987e-29 4.11765e-14)
(2.72134e-14 0 4.88136e-14)
(2.34915e-14 0 5.68618e-14)
(1.73822e-14 0 6.34724e-14)
(5.96227e-14 0 6.55841e-14)
(1.06885e-15 0 -1.8354e-15)
(2.20425e-16 -2.31119e-32 -1.83481e-15)
(4.0496e-16 0 -1.85236e-15)
(6.68533e-16 2.61738e-32 -1.86248e-15)
(9.3298e-16 0 -1.85148e-15)
(1.18295e-15 2.90809e-32 -1.81982e-15)
(1.41505e-15 0 -1.77342e-15)
(1.6286e-15 0 -1.71892e-15)
(1.82393e-15 0 -1.66217e-15)
(2.00201e-15 0 -1.6077e-15)
(2.16418e-15 0 -1.55864e-15)
(2.31204e-15 0 -1.51677e-15)
(2.44724e-15 0 -1.48266e-15)
(2.57141e-15 0 -1.45581e-15)
(2.68605e-15 -3.98477e-32 -1.4348e-15)
(2.79247e-15 0 -1.41731e-15)
(2.89174e-15 0 -1.40009e-15)
(2.98467e-15 0 -1.37874e-15)
(3.07179e-15 0 -1.34734e-15)
(3.15336e-15 -4.51596e-32 -1.29784e-15)
(3.22932e-15 -1.42442e-30 -1.21907e-15)
(3.29935e-15 -4.78304e-32 -1.09532e-15)
(3.36282e-15 -1.38568e-30 -9.04255e-16)
(3.4189e-15 0 -6.13963e-16)
(3.46653e-15 1.39284e-30 -1.79532e-16)
(3.5043e-15 -1.45331e-30 4.59885e-16)
(3.53001e-15 0 1.38096e-15)
(3.53949e-15 6.6928e-32 2.67094e-15)
(3.52489e-15 7.4255e-32 4.4275e-15)
(3.48655e-15 8.41426e-32 6.85041e-15)
(3.64589e-15 2.88061e-30 1.09925e-14)
(3.7508e-15 1.37353e-30 1.4664e-14)
(4.08371e-15 -1.34961e-31 1.82959e-14)