# Region      : all region0
# Cells       : 4250
# Volume      : 1.000000e+01
# Time        	average(theta)	average(psi)
657000        	3.853295e-01	-6.270859e-01
1314000       	3.867319e-01	-5.868014e-01
1971000       	3.873614e-01	-5.690697e-01
2628000       	3.876497e-01	-5.611959e-01
