# Region      : all region0
# Cells       : 4250
# Volume      : 1.000000e+01
# Time        	average(theta)	average(psi)
1314000       	3.773602e-01	-8.620856e-01
1971000       	3.764060e-01	-8.882352e-01
2628000       	3.754604e-01	-9.144832e-01
