# Region      : all region0
# Cells       : 4250
# Volume      : 1.000000e+01
# Time        	average(theta)	average(psi)
1314000       	3.867319e-01	-5.868005e-01
1971000       	3.873614e-01	-5.690702e-01
2628000       	3.876497e-01	-5.611976e-01
